M 10.00000 0 (5.00, 5.00, 0.00), (250.00, 250.00), 3.00
s 12.000000000 _0_ AGT  --- 0 tcp 40 [0.00 0 0] ------- [0:0 1:0 32 0] [0 0] 0 0
r 12.000000000 _0_ RTR  --- 0 tcp 40 [0.00 0 0] ------- [0:0 1:0 32 0] [0 0] 0 0
s 12.000000000 _0_ RTR  --- 0 AODV 48 [0.00 0 0] ------- [0:255 -1:255 30 0] [0x2 1 1 [1 0] [0 4]] (REQUEST)
s 12.030025000 _0_ MAC  --- 0 AODV 48 [0.00 -1 0] ------- [0:255 -1:255 30 0] [0x2 1 1 [1 0] [0 4]] (REQUEST)
s 14.000000000 _0_ RTR  --- 0 AODV 48 [0.00 0 0] ------- [0:255 -1:255 30 0] [0x2 1 2 [1 0] [0 6]] (REQUEST)
s 14.064025000 _0_ MAC  --- 0 AODV 48 [0.00 -1 0] ------- [0:255 -1:255 30 0] [0x2 1 2 [1 0] [0 6]] (REQUEST)
M 15.00000 1 (490.00, 285.00, 0.00), (45.00, 285.00), 5.00
s 15.000000000 _0_ AGT  --- 1 tcp 40 [0.00 0 0] ------- [0:0 1:0 32 0] [0 0] 0 0
r 15.000000000 _0_ RTR  --- 1 tcp 40 [0.00 0 0] ------- [0:0 1:0 32 0] [0 0] 0 0
s 18.000000000 _0_ RTR  --- 0 AODV 48 [0.00 0 0] ------- [0:255 -1:255 30 0] [0x2 1 3 [1 0] [0 8]] (REQUEST)
s 18.022025000 _0_ MAC  --- 0 AODV 48 [0.00 -1 0] ------- [0:255 -1:255 30 0] [0x2 1 3 [1 0] [0 8]] (REQUEST)
s 21.000000000 _0_ AGT  --- 2 tcp 40 [0.00 0 0] ------- [0:0 1:0 32 0] [0 0] 0 0
r 21.000000000 _0_ RTR  --- 2 tcp 40 [0.00 0 0] ------- [0:0 1:0 32 0] [0 0] 0 0
s 23.500000000 _0_ RTR  --- 0 AODV 48 [0.00 0 0] ------- [0:255 -1:255 30 0] [0x2 1 4 [1 0] [0 10]] (REQUEST)
s 23.548025000 _0_ MAC  --- 0 AODV 48 [0.00 -1 0] ------- [0:255 -1:255 30 0] [0x2 1 4 [1 0] [0 10]] (REQUEST)
r 23.591025789 _2_ MAC  --- 0 AODV 48 [0.00 -1 0] ------- [0:255 -1:255 30 0] [0x2 1 4 [1 0] [0 10]] (REQUEST)
r 23.591050789 _2_ RTR  --- 0 AODV 48 [0.00 -1 0] ------- [0:255 -1:255 30 0] [0x2 1 4 [1 0] [0 10]] (REQUEST)
s 23.599042344 _2_ RTR  --- 0 AODV 48 [0.00 -1 0] ------- [2:255 -1:255 29 0] [0x2 2 4 [1 0] [0 10]] (REQUEST)
s 23.613067344 _2_ MAC  --- 0 AODV 48 [0.00 -1 2] ------- [2:255 -1:255 29 0] [0x2 2 4 [1 0] [0 10]] (REQUEST)
r 23.656068132 _0_ MAC  --- 0 AODV 48 [0.00 -1 2] ------- [2:255 -1:255 29 0] [0x2 2 4 [1 0] [0 10]] (REQUEST)
r 23.656093132 _0_ RTR  --- 0 AODV 48 [0.00 -1 2] ------- [2:255 -1:255 29 0] [0x2 2 4 [1 0] [0 10]] (REQUEST)
D 31.000000000 _0_ RTR NRTE 0 tcp 40 [0.00 0 0] ------- [0:0 1:0 30 0] [0 0] 0 0
D 31.000000000 _0_ RTR NRTE 1 tcp 40 [0.00 0 0] ------- [0:0 1:0 30 0] [0 0] 0 0
D 31.000000000 _0_ RTR NRTE 2 tcp 40 [0.00 0 0] ------- [0:0 1:0 30 0] [0 0] 0 0
s 33.000000000 _0_ AGT  --- 3 tcp 40 [0.00 0 0] ------- [0:0 1:0 32 0] [0 0] 0 0
r 33.000000000 _0_ RTR  --- 3 tcp 40 [0.00 0 0] ------- [0:0 1:0 32 0] [0 0] 0 0
s 41.000000000 _0_ RTR  --- 0 AODV 48 [0.00 0 0] ------- [0:255 -1:255 30 0] [0x2 1 5 [1 0] [0 12]] (REQUEST)
s 41.040025000 _0_ MAC  --- 0 AODV 48 [0.00 -1 0] ------- [0:255 -1:255 30 0] [0x2 1 5 [1 0] [0 12]] (REQUEST)
r 41.083025623 _2_ MAC  --- 0 AODV 48 [0.00 -1 0] ------- [0:255 -1:255 30 0] [0x2 1 5 [1 0] [0 12]] (REQUEST)
r 41.083050623 _2_ RTR  --- 0 AODV 48 [0.00 -1 0] ------- [0:255 -1:255 30 0] [0x2 1 5 [1 0] [0 12]] (REQUEST)
s 41.085396640 _2_ RTR  --- 0 AODV 48 [0.00 -1 0] ------- [2:255 -1:255 29 0] [0x2 2 5 [1 0] [0 12]] (REQUEST)
s 41.157421640 _2_ MAC  --- 0 AODV 48 [0.00 -1 2] ------- [2:255 -1:255 29 0] [0x2 2 5 [1 0] [0 12]] (REQUEST)
r 41.200422261 _0_ MAC  --- 0 AODV 48 [0.00 -1 2] ------- [2:255 -1:255 29 0] [0x2 2 5 [1 0] [0 12]] (REQUEST)
r 41.200422353 _1_ MAC  --- 0 AODV 48 [0.00 -1 2] ------- [2:255 -1:255 29 0] [0x2 2 5 [1 0] [0 12]] (REQUEST)
r 41.200447261 _0_ RTR  --- 0 AODV 48 [0.00 -1 2] ------- [2:255 -1:255 29 0] [0x2 2 5 [1 0] [0 12]] (REQUEST)
r 41.200447353 _1_ RTR  --- 0 AODV 48 [0.00 -1 2] ------- [2:255 -1:255 29 0] [0x2 2 5 [1 0] [0 12]] (REQUEST)
s 41.200447353 _1_ RTR  --- 0 AODV 44 [0.00 0 0] ------- [1:255 0:255 30 2] [0x4 1 [1 4] 10.000000] (REPLY)
s 41.262452353 _1_ MAC  --- 0 ARP 28 [0.00 -1 1] ------- [REQUEST 1/1 0/2]
r 41.305453065 _2_ MAC  --- 0 ARP 28 [0.00 -1 1] ------- [REQUEST 1/1 0/2]
s 41.349458065 _2_ MAC  --- 0 RTS 10 [0.07 1 2] 
s 41.360458775 _1_ MAC  --- 0 CTS 10 [0.06 2 1] 
s 41.371459485 _2_ MAC  --- 0 ARP 28 [0.01 1 2] ------- [REPLY 2/2 1/1]
s 41.414460195 _1_ MAC  --- 0 ACK 10 [0.00 2 1] 
r 41.414460195 _1_ MAC  --- 0 ARP 28 [0.01 1 2] ------- [REPLY 2/2 1/1]
s 41.459458775 _1_ MAC  --- 0 RTS 10 [0.07 2 1] 
s 41.470459484 _2_ MAC  --- 0 CTS 10 [0.06 1 2] 
s 41.481460192 _1_ MAC  --- 0 AODV 44 [0.01 2 1] ------- [1:255 0:255 30 2] [0x4 1 [1 4] 10.000000] (REPLY)
s 41.524460900 _2_ MAC  --- 0 ACK 10 [0.00 1 2] 
r 41.524460900 _2_ MAC  --- 0 AODV 44 [0.01 2 1] ------- [1:255 0:255 30 2] [0x4 1 [1 4] 10.000000] (REPLY)
r 41.524485900 _2_ RTR  --- 0 AODV 44 [0.01 2 1] ------- [1:255 0:255 30 2] [0x4 1 [1 4] 10.000000] (REPLY)
f 41.524485900 _2_ RTR  --- 0 AODV 44 [0.01 2 1] ------- [1:255 0:255 29 0] [0x4 2 [1 4] 10.000000] (REPLY)
s 41.601459484 _2_ MAC  --- 0 ARP 28 [0.00 -1 2] ------- [REQUEST 2/2 0/0]
r 41.644460101 _0_ MAC  --- 0 ARP 28 [0.00 -1 2] ------- [REQUEST 2/2 0/0]
r 41.644460190 _1_ MAC  --- 0 ARP 28 [0.00 -1 2] ------- [REQUEST 2/2 0/0]
s 41.666465101 _0_ MAC  --- 0 RTS 10 [0.07 2 0] 
s 41.677465717 _2_ MAC  --- 0 CTS 10 [0.06 0 2] 
s 41.688466334 _0_ MAC  --- 0 ARP 28 [0.01 2 0] ------- [REPLY 0/0 2/2]
s 41.731466950 _2_ MAC  --- 0 ACK 10 [0.00 0 2] 
r 41.731466950 _2_ MAC  --- 0 ARP 28 [0.01 2 0] ------- [REPLY 0/0 2/2]
s 41.787465717 _2_ MAC  --- 0 RTS 10 [0.07 0 2] 
s 41.798466333 _0_ MAC  --- 0 CTS 10 [0.06 2 0] 
s 41.809466948 _2_ MAC  --- 0 AODV 44 [0.01 0 2] ------- [1:255 0:255 29 0] [0x4 2 [1 4] 10.000000] (REPLY)
s 41.852467564 _0_ MAC  --- 0 ACK 10 [0.00 2 0] 
r 41.852467564 _0_ MAC  --- 0 AODV 44 [0.01 0 2] ------- [1:255 0:255 29 0] [0x4 2 [1 4] 10.000000] (REPLY)
r 41.852492564 _0_ RTR  --- 0 AODV 44 [0.01 0 2] ------- [1:255 0:255 29 0] [0x4 2 [1 4] 10.000000] (REPLY)
s 41.852492564 _0_ RTR  --- 3 tcp 40 [0.00 0 0] ------- [0:0 1:0 30 2] [0 0] 0 0
s 41.883466333 _0_ MAC  --- 0 RTS 10 [0.07 2 0] 
s 41.894466948 _2_ MAC  --- 0 CTS 10 [0.06 0 2] 
s 41.905467562 _0_ MAC  --- 3 tcp 40 [0.01 2 0] ------- [0:0 1:0 30 2] [0 0] 0 0
s 41.948468176 _2_ MAC  --- 0 ACK 10 [0.00 0 2] 
r 41.948468176 _2_ MAC  --- 3 tcp 40 [0.01 2 0] ------- [0:0 1:0 30 2] [0 0] 0 0
r 41.948493176 _2_ RTR  --- 3 tcp 40 [0.01 2 0] ------- [0:0 1:0 30 2] [0 0] 0 0
f 41.948493176 _2_ RTR  --- 3 tcp 40 [0.01 2 0] ------- [0:0 1:0 29 1] [0 0] 0 0
s 42.031466948 _2_ MAC  --- 0 RTS 10 [0.07 1 2] 
s 42.042467647 _1_ MAC  --- 0 CTS 10 [0.06 2 1] 
s 42.053468346 _2_ MAC  --- 3 tcp 40 [0.01 1 2] ------- [0:0 1:0 29 1] [0 0] 0 0
s 42.096469044 _1_ MAC  --- 0 ACK 10 [0.00 2 1] 
r 42.096469044 _1_ MAC  --- 3 tcp 40 [0.01 1 2] ------- [0:0 1:0 29 1] [0 0] 0 0
r 42.096494044 _1_ AGT  --- 3 tcp 40 [0.01 1 2] ------- [0:0 1:0 29 1] [0 0] 0 0
s 42.096494044 _1_ AGT  --- 4 ack 40 [0.00 0 0] ------- [1:0 0:0 32 0] [0 0] 0 0
r 42.096494044 _1_ RTR  --- 4 ack 40 [0.00 0 0] ------- [1:0 0:0 32 0] [0 0] 0 0
s 42.096494044 _1_ RTR  --- 4 ack 40 [0.00 0 0] ------- [1:0 0:0 30 2] [0 0] 0 0
s 42.120467647 _1_ MAC  --- 0 RTS 10 [0.07 2 1] 
s 42.131468344 _2_ MAC  --- 0 CTS 10 [0.06 1 2] 
s 42.142469042 _1_ MAC  --- 4 ack 40 [0.01 2 1] ------- [1:0 0:0 30 2] [0 0] 0 0
s 42.185469739 _2_ MAC  --- 0 ACK 10 [0.00 1 2] 
r 42.185469739 _2_ MAC  --- 4 ack 40 [0.01 2 1] ------- [1:0 0:0 30 2] [0 0] 0 0
r 42.185494739 _2_ RTR  --- 4 ack 40 [0.01 2 1] ------- [1:0 0:0 30 2] [0 0] 0 0
f 42.185494739 _2_ RTR  --- 4 ack 40 [0.01 2 1] ------- [1:0 0:0 29 0] [0 0] 0 0
s 42.212468344 _2_ MAC  --- 0 RTS 10 [0.07 0 2] 
s 42.223468956 _0_ MAC  --- 0 CTS 10 [0.06 2 0] 
s 42.234469567 _2_ MAC  --- 4 ack 40 [0.01 0 2] ------- [1:0 0:0 29 0] [0 0] 0 0
s 42.277470179 _0_ MAC  --- 0 ACK 10 [0.00 2 0] 
r 42.277470179 _0_ MAC  --- 4 ack 40 [0.01 0 2] ------- [1:0 0:0 29 0] [0 0] 0 0
r 42.277495179 _0_ AGT  --- 4 ack 40 [0.01 0 2] ------- [1:0 0:0 29 0] [0 0] 0 0
s 42.277495179 _0_ AGT  --- 5 tcp 1540 [0.00 0 0] ------- [0:0 1:0 32 0] [1 0] 0 0
r 42.277495179 _0_ RTR  --- 5 tcp 1540 [0.00 0 0] ------- [0:0 1:0 32 0] [1 0] 0 0
s 42.277495179 _0_ RTR  --- 5 tcp 1540 [0.00 0 0] ------- [0:0 1:0 30 2] [1 0] 0 0
s 42.313468956 _0_ MAC  --- 0 RTS 10 [0.07 2 0] 
s 42.324469566 _2_ MAC  --- 0 CTS 10 [0.06 0 2] 
s 42.335470177 _0_ MAC  --- 5 tcp 1540 [0.01 2 0] ------- [0:0 1:0 30 2] [1 0] 0 0
s 42.378470787 _2_ MAC  --- 0 ACK 10 [0.00 0 2] 
r 42.378470787 _2_ MAC  --- 5 tcp 1540 [0.01 2 0] ------- [0:0 1:0 30 2] [1 0] 0 0
r 42.378495787 _2_ RTR  --- 5 tcp 1540 [0.01 2 0] ------- [0:0 1:0 30 2] [1 0] 0 0
f 42.378495787 _2_ RTR  --- 5 tcp 1540 [0.01 2 0] ------- [0:0 1:0 29 1] [1 0] 0 0
s 42.462469566 _2_ MAC  --- 0 RTS 10 [0.07 1 2] 
s 42.473470258 _1_ MAC  --- 0 CTS 10 [0.06 2 1] 
s 42.484470950 _2_ MAC  --- 5 tcp 1540 [0.01 1 2] ------- [0:0 1:0 29 1] [1 0] 0 0
s 42.527471642 _1_ MAC  --- 0 ACK 10 [0.00 2 1] 
r 42.527471642 _1_ MAC  --- 5 tcp 1540 [0.01 1 2] ------- [0:0 1:0 29 1] [1 0] 0 0
r 42.527496642 _1_ AGT  --- 5 tcp 1540 [0.01 1 2] ------- [0:0 1:0 29 1] [1 0] 0 0
s 42.527496642 _1_ AGT  --- 6 ack 40 [0.00 0 0] ------- [1:0 0:0 32 0] [1 0] 0 0
r 42.527496642 _1_ RTR  --- 6 ack 40 [0.00 0 0] ------- [1:0 0:0 32 0] [1 0] 0 0
s 42.527496642 _1_ RTR  --- 6 ack 40 [0.00 0 0] ------- [1:0 0:0 30 2] [1 0] 0 0
s 42.596470258 _1_ MAC  --- 0 RTS 10 [0.07 2 1] 
s 42.607470948 _2_ MAC  --- 0 CTS 10 [0.06 1 2] 
s 42.618471638 _1_ MAC  --- 6 ack 40 [0.01 2 1] ------- [1:0 0:0 30 2] [1 0] 0 0
s 42.661472328 _2_ MAC  --- 0 ACK 10 [0.00 1 2] 
r 42.661472328 _2_ MAC  --- 6 ack 40 [0.01 2 1] ------- [1:0 0:0 30 2] [1 0] 0 0
r 42.661497328 _2_ RTR  --- 6 ack 40 [0.01 2 1] ------- [1:0 0:0 30 2] [1 0] 0 0
f 42.661497328 _2_ RTR  --- 6 ack 40 [0.01 2 1] ------- [1:0 0:0 29 0] [1 0] 0 0
s 42.734470948 _2_ MAC  --- 0 RTS 10 [0.07 0 2] 
s 42.745471555 _0_ MAC  --- 0 CTS 10 [0.06 2 0] 
s 42.756472162 _2_ MAC  --- 6 ack 40 [0.01 0 2] ------- [1:0 0:0 29 0] [1 0] 0 0
s 42.799472768 _0_ MAC  --- 0 ACK 10 [0.00 2 0] 
r 42.799472768 _0_ MAC  --- 6 ack 40 [0.01 0 2] ------- [1:0 0:0 29 0] [1 0] 0 0
r 42.799497768 _0_ AGT  --- 6 ack 40 [0.01 0 2] ------- [1:0 0:0 29 0] [1 0] 0 0
s 42.799497768 _0_ AGT  --- 7 tcp 1540 [0.00 0 0] ------- [0:0 1:0 32 0] [2 0] 0 0
r 42.799497768 _0_ RTR  --- 7 tcp 1540 [0.00 0 0] ------- [0:0 1:0 32 0] [2 0] 0 0
s 42.799497768 _0_ AGT  --- 8 tcp 1540 [0.00 0 0] ------- [0:0 1:0 32 0] [3 0] 0 0
r 42.799497768 _0_ RTR  --- 8 tcp 1540 [0.00 0 0] ------- [0:0 1:0 32 0] [3 0] 0 0
s 42.799497768 _0_ RTR  --- 7 tcp 1540 [0.00 0 0] ------- [0:0 1:0 30 2] [2 0] 0 0
s 42.799497768 _0_ RTR  --- 8 tcp 1540 [0.00 0 0] ------- [0:0 1:0 30 2] [3 0] 0 0
s 42.837471555 _0_ MAC  --- 0 RTS 10 [0.07 2 0] 
s 42.848472161 _2_ MAC  --- 0 CTS 10 [0.06 0 2] 
s 42.859472766 _0_ MAC  --- 7 tcp 1540 [0.01 2 0] ------- [0:0 1:0 30 2] [2 0] 0 0
s 42.902473372 _2_ MAC  --- 0 ACK 10 [0.00 0 2] 
r 42.902473372 _2_ MAC  --- 7 tcp 1540 [0.01 2 0] ------- [0:0 1:0 30 2] [2 0] 0 0
r 42.902498372 _2_ RTR  --- 7 tcp 1540 [0.01 2 0] ------- [0:0 1:0 30 2] [2 0] 0 0
f 42.902498372 _2_ RTR  --- 7 tcp 1540 [0.01 2 0] ------- [0:0 1:0 29 1] [2 0] 0 0
s 42.929472161 _2_ MAC  --- 0 RTS 10 [0.07 1 2] 
s 42.940472845 _1_ MAC  --- 0 CTS 10 [0.06 2 1] 
s 42.951473529 _2_ MAC  --- 7 tcp 1540 [0.01 1 2] ------- [0:0 1:0 29 1] [2 0] 0 0
s 42.994474214 _1_ MAC  --- 0 ACK 10 [0.00 2 1] 
r 42.994474214 _1_ MAC  --- 7 tcp 1540 [0.01 1 2] ------- [0:0 1:0 29 1] [2 0] 0 0
r 42.994499214 _1_ AGT  --- 7 tcp 1540 [0.01 1 2] ------- [0:0 1:0 29 1] [2 0] 0 0
s 42.994499214 _1_ AGT  --- 9 ack 40 [0.00 0 0] ------- [1:0 0:0 32 0] [2 0] 0 0
r 42.994499214 _1_ RTR  --- 9 ack 40 [0.00 0 0] ------- [1:0 0:0 32 0] [2 0] 0 0
s 42.994499214 _1_ RTR  --- 9 ack 40 [0.00 0 0] ------- [1:0 0:0 30 2] [2 0] 0 0
s 43.056472845 _1_ MAC  --- 0 RTS 10 [0.07 2 1] 
s 43.067473528 _2_ MAC  --- 0 CTS 10 [0.06 1 2] 
s 43.078474210 _1_ MAC  --- 9 ack 40 [0.01 2 1] ------- [1:0 0:0 30 2] [2 0] 0 0
s 43.121474892 _2_ MAC  --- 0 ACK 10 [0.00 1 2] 
r 43.121474892 _2_ MAC  --- 9 ack 40 [0.01 2 1] ------- [1:0 0:0 30 2] [2 0] 0 0
r 43.121499892 _2_ RTR  --- 9 ack 40 [0.01 2 1] ------- [1:0 0:0 30 2] [2 0] 0 0
f 43.121499892 _2_ RTR  --- 9 ack 40 [0.01 2 1] ------- [1:0 0:0 29 0] [2 0] 0 0
s 43.182473528 _2_ MAC  --- 0 RTS 10 [0.07 0 2] 
s 43.193474130 _0_ MAC  --- 0 CTS 10 [0.06 2 0] 
s 43.204474732 _2_ MAC  --- 9 ack 40 [0.01 0 2] ------- [1:0 0:0 29 0] [2 0] 0 0
s 43.247475335 _0_ MAC  --- 0 ACK 10 [0.00 2 0] 
r 43.247475335 _0_ MAC  --- 9 ack 40 [0.01 0 2] ------- [1:0 0:0 29 0] [2 0] 0 0
r 43.247500335 _0_ AGT  --- 9 ack 40 [0.01 0 2] ------- [1:0 0:0 29 0] [2 0] 0 0
s 43.247500335 _0_ AGT  --- 10 tcp 1540 [0.00 0 0] ------- [0:0 1:0 32 0] [4 0] 0 0
r 43.247500335 _0_ RTR  --- 10 tcp 1540 [0.00 0 0] ------- [0:0 1:0 32 0] [4 0] 0 0
s 43.247500335 _0_ RTR  --- 10 tcp 1540 [0.00 0 0] ------- [0:0 1:0 30 2] [4 0] 0 0
s 43.320474130 _0_ MAC  --- 0 RTS 10 [0.07 2 0] 
s 43.331474731 _2_ MAC  --- 0 CTS 10 [0.06 0 2] 
s 43.342475332 _0_ MAC  --- 8 tcp 1540 [0.01 2 0] ------- [0:0 1:0 30 2] [3 0] 0 0
s 43.385475933 _2_ MAC  --- 0 ACK 10 [0.00 0 2] 
r 43.385475933 _2_ MAC  --- 8 tcp 1540 [0.01 2 0] ------- [0:0 1:0 30 2] [3 0] 0 0
r 43.385500933 _2_ RTR  --- 8 tcp 1540 [0.01 2 0] ------- [0:0 1:0 30 2] [3 0] 0 0
f 43.385500933 _2_ RTR  --- 8 tcp 1540 [0.01 2 0] ------- [0:0 1:0 29 1] [3 0] 0 0
s 43.442474731 _2_ MAC  --- 0 RTS 10 [0.07 1 2] 
s 43.453475407 _1_ MAC  --- 0 CTS 10 [0.06 2 1] 
s 43.464476083 _2_ MAC  --- 8 tcp 1540 [0.01 1 2] ------- [0:0 1:0 29 1] [3 0] 0 0
s 43.507476759 _1_ MAC  --- 0 ACK 10 [0.00 2 1] 
r 43.507476759 _1_ MAC  --- 8 tcp 1540 [0.01 1 2] ------- [0:0 1:0 29 1] [3 0] 0 0
r 43.507501759 _1_ AGT  --- 8 tcp 1540 [0.01 1 2] ------- [0:0 1:0 29 1] [3 0] 0 0
s 43.507501759 _1_ AGT  --- 11 ack 40 [0.00 0 0] ------- [1:0 0:0 32 0] [3 0] 0 0
r 43.507501759 _1_ RTR  --- 11 ack 40 [0.00 0 0] ------- [1:0 0:0 32 0] [3 0] 0 0
s 43.507501759 _1_ RTR  --- 11 ack 40 [0.00 0 0] ------- [1:0 0:0 30 2] [3 0] 0 0
s 43.544475407 _1_ MAC  --- 0 RTS 10 [0.07 2 1] 
s 43.555476082 _2_ MAC  --- 0 CTS 10 [0.06 1 2] 
s 43.566476756 _1_ MAC  --- 11 ack 40 [0.01 2 1] ------- [1:0 0:0 30 2] [3 0] 0 0
s 43.609477430 _2_ MAC  --- 0 ACK 10 [0.00 1 2] 
r 43.609477430 _2_ MAC  --- 11 ack 40 [0.01 2 1] ------- [1:0 0:0 30 2] [3 0] 0 0
r 43.609502430 _2_ RTR  --- 11 ack 40 [0.01 2 1] ------- [1:0 0:0 30 2] [3 0] 0 0
f 43.609502430 _2_ RTR  --- 11 ack 40 [0.01 2 1] ------- [1:0 0:0 29 0] [3 0] 0 0
s 43.683476082 _2_ MAC  --- 0 RTS 10 [0.07 0 2] 
s 43.694476679 _0_ MAC  --- 0 CTS 10 [0.06 2 0] 
s 43.705477277 _2_ MAC  --- 11 ack 40 [0.01 0 2] ------- [1:0 0:0 29 0] [3 0] 0 0
s 43.748477875 _0_ MAC  --- 0 ACK 10 [0.00 2 0] 
r 43.748477875 _0_ MAC  --- 11 ack 40 [0.01 0 2] ------- [1:0 0:0 29 0] [3 0] 0 0
r 43.748502875 _0_ AGT  --- 11 ack 40 [0.01 0 2] ------- [1:0 0:0 29 0] [3 0] 0 0
s 43.748502875 _0_ AGT  --- 12 tcp 1540 [0.00 0 0] ------- [0:0 1:0 32 0] [5 0] 0 0
r 43.748502875 _0_ RTR  --- 12 tcp 1540 [0.00 0 0] ------- [0:0 1:0 32 0] [5 0] 0 0
s 43.748502875 _0_ RTR  --- 12 tcp 1540 [0.00 0 0] ------- [0:0 1:0 30 2] [5 0] 0 0
s 43.770476679 _0_ MAC  --- 0 RTS 10 [0.07 2 0] 
s 43.781477276 _2_ MAC  --- 0 CTS 10 [0.06 0 2] 
s 43.792477873 _0_ MAC  --- 10 tcp 1540 [0.01 2 0] ------- [0:0 1:0 30 2] [4 0] 0 0
s 43.835478470 _2_ MAC  --- 0 ACK 10 [0.00 0 2] 
r 43.835478470 _2_ MAC  --- 10 tcp 1540 [0.01 2 0] ------- [0:0 1:0 30 2] [4 0] 0 0
r 43.835503470 _2_ RTR  --- 10 tcp 1540 [0.01 2 0] ------- [0:0 1:0 30 2] [4 0] 0 0
f 43.835503470 _2_ RTR  --- 10 tcp 1540 [0.01 2 0] ------- [0:0 1:0 29 1] [4 0] 0 0
s 43.885477276 _2_ MAC  --- 0 RTS 10 [0.07 1 2] 
s 43.896477945 _1_ MAC  --- 0 CTS 10 [0.06 2 1] 
s 43.907478614 _2_ MAC  --- 10 tcp 1540 [0.01 1 2] ------- [0:0 1:0 29 1] [4 0] 0 0
s 43.950479283 _1_ MAC  --- 0 ACK 10 [0.00 2 1] 
r 43.950479283 _1_ MAC  --- 10 tcp 1540 [0.01 1 2] ------- [0:0 1:0 29 1] [4 0] 0 0
r 43.950504283 _1_ AGT  --- 10 tcp 1540 [0.01 1 2] ------- [0:0 1:0 29 1] [4 0] 0 0
s 43.950504283 _1_ AGT  --- 13 ack 40 [0.00 0 0] ------- [1:0 0:0 32 0] [4 0] 0 0
r 43.950504283 _1_ RTR  --- 13 ack 40 [0.00 0 0] ------- [1:0 0:0 32 0] [4 0] 0 0
s 43.950504283 _1_ RTR  --- 13 ack 40 [0.00 0 0] ------- [1:0 0:0 30 2] [4 0] 0 0
s 43.986477945 _1_ MAC  --- 0 RTS 10 [0.07 2 1] 
s 43.997478613 _2_ MAC  --- 0 CTS 10 [0.06 1 2] 
s 44.008479280 _1_ MAC  --- 13 ack 40 [0.01 2 1] ------- [1:0 0:0 30 2] [4 0] 0 0
s 44.051479947 _2_ MAC  --- 0 ACK 10 [0.00 1 2] 
r 44.051479947 _2_ MAC  --- 13 ack 40 [0.01 2 1] ------- [1:0 0:0 30 2] [4 0] 0 0
r 44.051504947 _2_ RTR  --- 13 ack 40 [0.01 2 1] ------- [1:0 0:0 30 2] [4 0] 0 0
f 44.051504947 _2_ RTR  --- 13 ack 40 [0.01 2 1] ------- [1:0 0:0 29 0] [4 0] 0 0
s 44.083479207 _0_ MAC  --- 0 RTS 10 [0.07 2 0] 
s 44.094479801 _2_ MAC  --- 0 CTS 10 [0.06 0 2] 
s 44.105480395 _0_ MAC  --- 12 tcp 1540 [0.01 2 0] ------- [0:0 1:0 30 2] [5 0] 0 0
s 44.148480989 _2_ MAC  --- 0 ACK 10 [0.00 0 2] 
r 44.148480989 _2_ MAC  --- 12 tcp 1540 [0.01 2 0] ------- [0:0 1:0 30 2] [5 0] 0 0
r 44.148505989 _2_ RTR  --- 12 tcp 1540 [0.01 2 0] ------- [0:0 1:0 30 2] [5 0] 0 0
f 44.148505989 _2_ RTR  --- 12 tcp 1540 [0.01 2 0] ------- [0:0 1:0 29 1] [5 0] 0 0
s 44.221479801 _2_ MAC  --- 0 RTS 10 [0.07 0 2] 
s 44.232480394 _0_ MAC  --- 0 CTS 10 [0.06 2 0] 
s 44.243480987 _2_ MAC  --- 13 ack 40 [0.01 0 2] ------- [1:0 0:0 29 0] [4 0] 0 0
s 44.286481579 _0_ MAC  --- 0 ACK 10 [0.00 2 0] 
r 44.286481579 _0_ MAC  --- 13 ack 40 [0.01 0 2] ------- [1:0 0:0 29 0] [4 0] 0 0
r 44.286506579 _0_ AGT  --- 13 ack 40 [0.01 0 2] ------- [1:0 0:0 29 0] [4 0] 0 0
s 44.286506579 _0_ AGT  --- 14 tcp 1540 [0.00 0 0] ------- [0:0 1:0 32 0] [6 0] 0 0
r 44.286506579 _0_ RTR  --- 14 tcp 1540 [0.00 0 0] ------- [0:0 1:0 32 0] [6 0] 0 0
s 44.286506579 _0_ AGT  --- 15 tcp 1540 [0.00 0 0] ------- [0:0 1:0 32 0] [7 0] 0 0
r 44.286506579 _0_ RTR  --- 15 tcp 1540 [0.00 0 0] ------- [0:0 1:0 32 0] [7 0] 0 0
s 44.286506579 _0_ RTR  --- 14 tcp 1540 [0.00 0 0] ------- [0:0 1:0 30 2] [6 0] 0 0
s 44.286506579 _0_ RTR  --- 15 tcp 1540 [0.00 0 0] ------- [0:0 1:0 30 2] [7 0] 0 0
s 44.324482171 _2_ MAC  --- 0 RTS 10 [0.07 1 2] 
s 44.397482171 _2_ MAC  --- 0 RTS 10 [0.07 1 2] 
s 44.408482832 _1_ MAC  --- 0 CTS 10 [0.06 2 1] 
s 44.419483492 _2_ MAC  --- 12 tcp 1540 [0.01 1 2] ------- [0:0 1:0 29 1] [5 0] 0 0
s 44.462484153 _1_ MAC  --- 0 ACK 10 [0.00 2 1] 
r 44.462484153 _1_ MAC  --- 12 tcp 1540 [0.01 1 2] ------- [0:0 1:0 29 1] [5 0] 0 0
r 44.462509153 _1_ AGT  --- 12 tcp 1540 [0.01 1 2] ------- [0:0 1:0 29 1] [5 0] 0 0
s 44.462509153 _1_ AGT  --- 16 ack 40 [0.00 0 0] ------- [1:0 0:0 32 0] [5 0] 0 0
r 44.462509153 _1_ RTR  --- 16 ack 40 [0.00 0 0] ------- [1:0 0:0 32 0] [5 0] 0 0
s 44.462509153 _1_ RTR  --- 16 ack 40 [0.00 0 0] ------- [1:0 0:0 30 2] [5 0] 0 0
s 44.531482832 _1_ MAC  --- 0 RTS 10 [0.07 2 1] 
s 44.542483491 _2_ MAC  --- 0 CTS 10 [0.06 1 2] 
s 44.553484149 _1_ MAC  --- 16 ack 40 [0.01 2 1] ------- [1:0 0:0 30 2] [5 0] 0 0
s 44.596484807 _2_ MAC  --- 0 ACK 10 [0.00 1 2] 
r 44.596484807 _2_ MAC  --- 16 ack 40 [0.01 2 1] ------- [1:0 0:0 30 2] [5 0] 0 0
r 44.596509807 _2_ RTR  --- 16 ack 40 [0.01 2 1] ------- [1:0 0:0 30 2] [5 0] 0 0
f 44.596509807 _2_ RTR  --- 16 ack 40 [0.01 2 1] ------- [1:0 0:0 29 0] [5 0] 0 0
s 44.658483491 _2_ MAC  --- 0 RTS 10 [0.07 0 2] 
s 44.669484079 _0_ MAC  --- 0 CTS 10 [0.06 2 0] 
s 44.680484668 _2_ MAC  --- 16 ack 40 [0.01 0 2] ------- [1:0 0:0 29 0] [5 0] 0 0
s 44.723485256 _0_ MAC  --- 0 ACK 10 [0.00 2 0] 
r 44.723485256 _0_ MAC  --- 16 ack 40 [0.01 0 2] ------- [1:0 0:0 29 0] [5 0] 0 0
r 44.723510256 _0_ AGT  --- 16 ack 40 [0.01 0 2] ------- [1:0 0:0 29 0] [5 0] 0 0
s 44.723510256 _0_ AGT  --- 17 tcp 1540 [0.00 0 0] ------- [0:0 1:0 32 0] [8 0] 0 0
r 44.723510256 _0_ RTR  --- 17 tcp 1540 [0.00 0 0] ------- [0:0 1:0 32 0] [8 0] 0 0
s 44.723510256 _0_ RTR  --- 17 tcp 1540 [0.00 0 0] ------- [0:0 1:0 30 2] [8 0] 0 0
s 44.794484079 _0_ MAC  --- 0 RTS 10 [0.07 2 0] 
s 44.805484667 _2_ MAC  --- 0 CTS 10 [0.06 0 2] 
s 44.816485254 _0_ MAC  --- 14 tcp 1540 [0.01 2 0] ------- [0:0 1:0 30 2] [6 0] 0 0
s 44.859485841 _2_ MAC  --- 0 ACK 10 [0.00 0 2] 
r 44.859485841 _2_ MAC  --- 14 tcp 1540 [0.01 2 0] ------- [0:0 1:0 30 2] [6 0] 0 0
r 44.859510841 _2_ RTR  --- 14 tcp 1540 [0.01 2 0] ------- [0:0 1:0 30 2] [6 0] 0 0
f 44.859510841 _2_ RTR  --- 14 tcp 1540 [0.01 2 0] ------- [0:0 1:0 29 1] [6 0] 0 0
s 44.898484667 _2_ MAC  --- 0 RTS 10 [0.07 1 2] 
s 44.909485319 _1_ MAC  --- 0 CTS 10 [0.06 2 1] 
s 44.920485971 _2_ MAC  --- 14 tcp 1540 [0.01 1 2] ------- [0:0 1:0 29 1] [6 0] 0 0
s 44.963486623 _1_ MAC  --- 0 ACK 10 [0.00 2 1] 
r 44.963486623 _1_ MAC  --- 14 tcp 1540 [0.01 1 2] ------- [0:0 1:0 29 1] [6 0] 0 0
r 44.963511623 _1_ AGT  --- 14 tcp 1540 [0.01 1 2] ------- [0:0 1:0 29 1] [6 0] 0 0
s 44.963511623 _1_ AGT  --- 18 ack 40 [0.00 0 0] ------- [1:0 0:0 32 0] [6 0] 0 0
r 44.963511623 _1_ RTR  --- 18 ack 40 [0.00 0 0] ------- [1:0 0:0 32 0] [6 0] 0 0
s 44.963511623 _1_ RTR  --- 18 ack 40 [0.00 0 0] ------- [1:0 0:0 30 2] [6 0] 0 0
s 44.994485319 _1_ MAC  --- 0 RTS 10 [0.07 2 1] 
s 45.005485970 _2_ MAC  --- 0 CTS 10 [0.06 1 2] 
s 45.016486621 _1_ MAC  --- 18 ack 40 [0.01 2 1] ------- [1:0 0:0 30 2] [6 0] 0 0
s 45.059487271 _2_ MAC  --- 0 ACK 10 [0.00 1 2] 
r 45.059487271 _2_ MAC  --- 18 ack 40 [0.01 2 1] ------- [1:0 0:0 30 2] [6 0] 0 0
r 45.059512271 _2_ RTR  --- 18 ack 40 [0.01 2 1] ------- [1:0 0:0 30 2] [6 0] 0 0
f 45.059512271 _2_ RTR  --- 18 ack 40 [0.01 2 1] ------- [1:0 0:0 29 0] [6 0] 0 0
s 45.100486555 _0_ MAC  --- 0 RTS 10 [0.07 2 0] 
s 45.111487140 _2_ MAC  --- 0 CTS 10 [0.06 0 2] 
s 45.122487724 _0_ MAC  --- 15 tcp 1540 [0.01 2 0] ------- [0:0 1:0 30 2] [7 0] 0 0
s 45.165488309 _2_ MAC  --- 0 ACK 10 [0.00 0 2] 
r 45.165488309 _2_ MAC  --- 15 tcp 1540 [0.01 2 0] ------- [0:0 1:0 30 2] [7 0] 0 0
r 45.165513309 _2_ RTR  --- 15 tcp 1540 [0.01 2 0] ------- [0:0 1:0 30 2] [7 0] 0 0
f 45.165513309 _2_ RTR  --- 15 tcp 1540 [0.01 2 0] ------- [0:0 1:0 29 1] [7 0] 0 0
s 45.191488893 _0_ MAC  --- 0 RTS 10 [0.07 2 0] 
s 45.202489476 _2_ MAC  --- 0 CTS 10 [0.06 0 2] 
s 45.213490060 _0_ MAC  --- 17 tcp 1540 [0.01 2 0] ------- [0:0 1:0 30 2] [8 0] 0 0
s 45.256490643 _2_ MAC  --- 0 ACK 10 [0.00 0 2] 
r 45.256490643 _2_ MAC  --- 17 tcp 1540 [0.01 2 0] ------- [0:0 1:0 30 2] [8 0] 0 0
r 45.256515643 _2_ RTR  --- 17 tcp 1540 [0.01 2 0] ------- [0:0 1:0 30 2] [8 0] 0 0
f 45.256515643 _2_ RTR  --- 17 tcp 1540 [0.01 2 0] ------- [0:0 1:0 29 1] [8 0] 0 0
s 45.292489476 _2_ MAC  --- 0 RTS 10 [0.07 0 2] 
s 45.303490059 _0_ MAC  --- 0 CTS 10 [0.06 2 0] 
s 45.314490642 _2_ MAC  --- 18 ack 40 [0.01 0 2] ------- [1:0 0:0 29 0] [6 0] 0 0
s 45.357491224 _0_ MAC  --- 0 ACK 10 [0.00 2 0] 
r 45.357491224 _0_ MAC  --- 18 ack 40 [0.01 0 2] ------- [1:0 0:0 29 0] [6 0] 0 0
r 45.357516224 _0_ AGT  --- 18 ack 40 [0.01 0 2] ------- [1:0 0:0 29 0] [6 0] 0 0
s 45.357516224 _0_ AGT  --- 19 tcp 1540 [0.00 0 0] ------- [0:0 1:0 32 0] [9 0] 0 0
r 45.357516224 _0_ RTR  --- 19 tcp 1540 [0.00 0 0] ------- [0:0 1:0 32 0] [9 0] 0 0
s 45.357516224 _0_ RTR  --- 19 tcp 1540 [0.00 0 0] ------- [0:0 1:0 30 2] [9 0] 0 0
s 45.382491806 _2_ MAC  --- 0 RTS 10 [0.07 1 2] 
s 45.461491806 _2_ MAC  --- 0 RTS 10 [0.07 1 2] 
s 45.472492450 _1_ MAC  --- 0 CTS 10 [0.06 2 1] 
s 45.483493093 _2_ MAC  --- 15 tcp 1540 [0.01 1 2] ------- [0:0 1:0 29 1] [7 0] 0 0
s 45.526493736 _1_ MAC  --- 0 ACK 10 [0.00 2 1] 
r 45.526493736 _1_ MAC  --- 15 tcp 1540 [0.01 1 2] ------- [0:0 1:0 29 1] [7 0] 0 0
r 45.526518736 _1_ AGT  --- 15 tcp 1540 [0.01 1 2] ------- [0:0 1:0 29 1] [7 0] 0 0
s 45.526518736 _1_ AGT  --- 20 ack 40 [0.00 0 0] ------- [1:0 0:0 32 0] [7 0] 0 0
r 45.526518736 _1_ RTR  --- 20 ack 40 [0.00 0 0] ------- [1:0 0:0 32 0] [7 0] 0 0
s 45.526518736 _1_ RTR  --- 20 ack 40 [0.00 0 0] ------- [1:0 0:0 30 2] [7 0] 0 0
s 45.550492450 _1_ MAC  --- 0 RTS 10 [0.07 2 1] 
s 45.561493091 _2_ MAC  --- 0 CTS 10 [0.06 1 2] 
s 45.572493733 _1_ MAC  --- 20 ack 40 [0.01 2 1] ------- [1:0 0:0 30 2] [7 0] 0 0
s 45.615494375 _2_ MAC  --- 0 ACK 10 [0.00 1 2] 
r 45.615494375 _2_ MAC  --- 20 ack 40 [0.01 2 1] ------- [1:0 0:0 30 2] [7 0] 0 0
r 45.615519375 _2_ RTR  --- 20 ack 40 [0.01 2 1] ------- [1:0 0:0 30 2] [7 0] 0 0
f 45.615519375 _2_ RTR  --- 20 ack 40 [0.01 2 1] ------- [1:0 0:0 29 0] [7 0] 0 0
s 45.660493091 _2_ MAC  --- 0 RTS 10 [0.07 1 2] 
s 45.671493732 _1_ MAC  --- 0 CTS 10 [0.06 2 1] 
s 45.682494372 _2_ MAC  --- 17 tcp 1540 [0.01 1 2] ------- [0:0 1:0 29 1] [8 0] 0 0
s 45.725495011 _1_ MAC  --- 0 ACK 10 [0.00 2 1] 
r 45.725495011 _1_ MAC  --- 17 tcp 1540 [0.01 1 2] ------- [0:0 1:0 29 1] [8 0] 0 0
r 45.725520011 _1_ AGT  --- 17 tcp 1540 [0.01 1 2] ------- [0:0 1:0 29 1] [8 0] 0 0
s 45.725520011 _1_ AGT  --- 21 ack 40 [0.00 0 0] ------- [1:0 0:0 32 0] [8 0] 0 0
r 45.725520011 _1_ RTR  --- 21 ack 40 [0.00 0 0] ------- [1:0 0:0 32 0] [8 0] 0 0
s 45.725520011 _1_ RTR  --- 21 ack 40 [0.00 0 0] ------- [1:0 0:0 30 2] [8 0] 0 0
s 45.768493732 _1_ MAC  --- 0 RTS 10 [0.07 2 1] 
s 45.779494370 _2_ MAC  --- 0 CTS 10 [0.06 1 2] 
s 45.790495008 _1_ MAC  --- 21 ack 40 [0.01 2 1] ------- [1:0 0:0 30 2] [8 0] 0 0
s 45.833495646 _2_ MAC  --- 0 ACK 10 [0.00 1 2] 
r 45.833495646 _2_ MAC  --- 21 ack 40 [0.01 2 1] ------- [1:0 0:0 30 2] [8 0] 0 0
r 45.833520646 _2_ RTR  --- 21 ack 40 [0.01 2 1] ------- [1:0 0:0 30 2] [8 0] 0 0
f 45.833520646 _2_ RTR  --- 21 ack 40 [0.01 2 1] ------- [1:0 0:0 29 0] [8 0] 0 0
s 45.861494370 _2_ MAC  --- 0 RTS 10 [0.07 0 2] 
s 45.872494947 _0_ MAC  --- 0 CTS 10 [0.06 2 0] 
s 45.883495525 _2_ MAC  --- 20 ack 40 [0.01 0 2] ------- [1:0 0:0 29 0] [7 0] 0 0
s 45.926496102 _0_ MAC  --- 0 ACK 10 [0.00 2 0] 
r 45.926496102 _0_ MAC  --- 20 ack 40 [0.01 0 2] ------- [1:0 0:0 29 0] [7 0] 0 0
r 45.926521102 _0_ AGT  --- 20 ack 40 [0.01 0 2] ------- [1:0 0:0 29 0] [7 0] 0 0
s 45.926521102 _0_ AGT  --- 22 tcp 1540 [0.00 0 0] ------- [0:0 1:0 32 0] [10 0] 0 0
r 45.926521102 _0_ RTR  --- 22 tcp 1540 [0.00 0 0] ------- [0:0 1:0 32 0] [10 0] 0 0
s 45.926521102 _0_ AGT  --- 23 tcp 1540 [0.00 0 0] ------- [0:0 1:0 32 0] [11 0] 0 0
r 45.926521102 _0_ RTR  --- 23 tcp 1540 [0.00 0 0] ------- [0:0 1:0 32 0] [11 0] 0 0
s 45.926521102 _0_ RTR  --- 22 tcp 1540 [0.00 0 0] ------- [0:0 1:0 30 2] [10 0] 0 0
s 45.926521102 _0_ RTR  --- 23 tcp 1540 [0.00 0 0] ------- [0:0 1:0 30 2] [11 0] 0 0
s 45.951496679 _2_ MAC  --- 0 RTS 10 [0.07 0 2] 
s 45.962497255 _0_ MAC  --- 0 CTS 10 [0.06 2 0] 
s 45.973497832 _2_ MAC  --- 21 ack 40 [0.01 0 2] ------- [1:0 0:0 29 0] [8 0] 0 0
s 46.016498408 _0_ MAC  --- 0 ACK 10 [0.00 2 0] 
r 46.016498408 _0_ MAC  --- 21 ack 40 [0.01 0 2] ------- [1:0 0:0 29 0] [8 0] 0 0
r 46.016523408 _0_ AGT  --- 21 ack 40 [0.01 0 2] ------- [1:0 0:0 29 0] [8 0] 0 0
s 46.016523408 _0_ AGT  --- 24 tcp 1540 [0.00 0 0] ------- [0:0 1:0 32 0] [12 0] 0 0
r 46.016523408 _0_ RTR  --- 24 tcp 1540 [0.00 0 0] ------- [0:0 1:0 32 0] [12 0] 0 0
s 46.016523408 _0_ RTR  --- 24 tcp 1540 [0.00 0 0] ------- [0:0 1:0 30 2] [12 0] 0 0
s 46.072497255 _0_ MAC  --- 0 RTS 10 [0.07 2 0] 
s 46.083497831 _2_ MAC  --- 0 CTS 10 [0.06 0 2] 
s 46.094498406 _0_ MAC  --- 19 tcp 1540 [0.01 2 0] ------- [0:0 1:0 30 2] [9 0] 0 0
s 46.137498982 _2_ MAC  --- 0 ACK 10 [0.00 0 2] 
r 46.137498982 _2_ MAC  --- 19 tcp 1540 [0.01 2 0] ------- [0:0 1:0 30 2] [9 0] 0 0
r 46.137523982 _2_ RTR  --- 19 tcp 1540 [0.01 2 0] ------- [0:0 1:0 30 2] [9 0] 0 0
f 46.137523982 _2_ RTR  --- 19 tcp 1540 [0.01 2 0] ------- [0:0 1:0 29 1] [9 0] 0 0
s 46.179497831 _2_ MAC  --- 0 RTS 10 [0.07 1 2] 
s 46.190498463 _1_ MAC  --- 0 CTS 10 [0.06 2 1] 
s 46.201499094 _2_ MAC  --- 19 tcp 1540 [0.01 1 2] ------- [0:0 1:0 29 1] [9 0] 0 0
s 46.244499726 _1_ MAC  --- 0 ACK 10 [0.00 2 1] 
r 46.244499726 _1_ MAC  --- 19 tcp 1540 [0.01 1 2] ------- [0:0 1:0 29 1] [9 0] 0 0
r 46.244524726 _1_ AGT  --- 19 tcp 1540 [0.01 1 2] ------- [0:0 1:0 29 1] [9 0] 0 0
s 46.244524726 _1_ AGT  --- 25 ack 40 [0.00 0 0] ------- [1:0 0:0 32 0] [9 0] 0 0
r 46.244524726 _1_ RTR  --- 25 ack 40 [0.00 0 0] ------- [1:0 0:0 32 0] [9 0] 0 0
s 46.244524726 _1_ RTR  --- 25 ack 40 [0.00 0 0] ------- [1:0 0:0 30 2] [9 0] 0 0
s 46.312498463 _1_ MAC  --- 0 RTS 10 [0.07 2 1] 
s 46.323499092 _2_ MAC  --- 0 CTS 10 [0.06 1 2] 
s 46.334499722 _1_ MAC  --- 25 ack 40 [0.01 2 1] ------- [1:0 0:0 30 2] [9 0] 0 0
s 46.377500351 _2_ MAC  --- 0 ACK 10 [0.00 1 2] 
r 46.377500351 _2_ MAC  --- 25 ack 40 [0.01 2 1] ------- [1:0 0:0 30 2] [9 0] 0 0
r 46.377525351 _2_ RTR  --- 25 ack 40 [0.01 2 1] ------- [1:0 0:0 30 2] [9 0] 0 0
f 46.377525351 _2_ RTR  --- 25 ack 40 [0.01 2 1] ------- [1:0 0:0 29 0] [9 0] 0 0
s 46.403499092 _2_ MAC  --- 0 RTS 10 [0.07 0 2] 
s 46.487500798 _0_ MAC  --- 0 RTS 10 [0.07 2 0] 
s 46.498501370 _2_ MAC  --- 0 CTS 10 [0.06 0 2] 
s 46.509501941 _0_ MAC  --- 22 tcp 1540 [0.01 2 0] ------- [0:0 1:0 30 2] [10 0] 0 0
s 46.552502513 _2_ MAC  --- 0 ACK 10 [0.00 0 2] 
r 46.552502513 _2_ MAC  --- 22 tcp 1540 [0.01 2 0] ------- [0:0 1:0 30 2] [10 0] 0 0
r 46.552527513 _2_ RTR  --- 22 tcp 1540 [0.01 2 0] ------- [0:0 1:0 30 2] [10 0] 0 0
f 46.552527513 _2_ RTR  --- 22 tcp 1540 [0.01 2 0] ------- [0:0 1:0 29 1] [10 0] 0 0
s 46.606503084 _0_ MAC  --- 0 RTS 10 [0.07 2 0] 
s 46.617503654 _2_ MAC  --- 0 CTS 10 [0.06 0 2] 
s 46.628504225 _0_ MAC  --- 23 tcp 1540 [0.01 2 0] ------- [0:0 1:0 30 2] [11 0] 0 0
s 46.671504795 _2_ MAC  --- 0 ACK 10 [0.00 0 2] 
r 46.671504795 _2_ MAC  --- 23 tcp 1540 [0.01 2 0] ------- [0:0 1:0 30 2] [11 0] 0 0
r 46.671529795 _2_ RTR  --- 23 tcp 1540 [0.01 2 0] ------- [0:0 1:0 30 2] [11 0] 0 0
f 46.671529795 _2_ RTR  --- 23 tcp 1540 [0.01 2 0] ------- [0:0 1:0 29 1] [11 0] 0 0
s 46.734505365 _0_ MAC  --- 0 RTS 10 [0.07 2 0] 
s 46.745505934 _2_ MAC  --- 0 CTS 10 [0.06 0 2] 
s 46.756506503 _0_ MAC  --- 24 tcp 1540 [0.01 2 0] ------- [0:0 1:0 30 2] [12 0] 0 0
s 46.799507072 _2_ MAC  --- 0 ACK 10 [0.00 0 2] 
r 46.799507072 _2_ MAC  --- 24 tcp 1540 [0.01 2 0] ------- [0:0 1:0 30 2] [12 0] 0 0
r 46.799532072 _2_ RTR  --- 24 tcp 1540 [0.01 2 0] ------- [0:0 1:0 30 2] [12 0] 0 0
f 46.799532072 _2_ RTR  --- 24 tcp 1540 [0.01 2 0] ------- [0:0 1:0 29 1] [12 0] 0 0