n -t * -s 0  -x 5 -y 5 -Z 0 -z 20  -v circle -c black
n -t * -s 1  -x 490 -y 285 -Z 0 -z 20  -v circle -c black
n -t * -s 2  -x 150 -y 240 -Z 0 -z 20  -v circle -c black
V -t * -v 1.0a5 -a 0
W -t * -x 500 -y 400
A -t * -n 1 -p 0 -o 0x7fffffff -c 30 -a 1
A -t * -h 1 -m 1073741823 -s 0
n -t 10.000000 -s 0 -x 5.000000 -y 5.000000 -U 2.121320 -V 2.121320 -T 115.494108
+ -t 12.000000000 -s 0 -d -1 -p tcp -e 40 -c 2 -a 0 -i 0 -k AGT 
- -t 12.000000000 -s 0 -d -1 -p tcp -e 40 -c 2 -a 0 -i 0 -k AGT
h -t 12.000000000 -s 0 -d -1 -p tcp -e 40 -c 2 -a 0 -i 0 -k AGT
+ -t 12.000000000 -s 0 -d -1 -p AODV -e 48 -c 2 -a 0 -i 0 -k RTR 
- -t 12.000000000 -s 0 -d -1 -p AODV -e 48 -c 2 -a 0 -i 0 -k RTR
h -t 12.000000000 -s 0 -d -1 -p AODV -e 48 -c 2 -a 0 -i 0 -k RTR
+ -t 12.030025000 -s 0 -d -1 -p AODV -e 48 -c 2 -a 0 -i 0 -k MAC 
- -t 12.030025000 -s 0 -d -1 -p AODV -e 48 -c 2 -a 0 -i 0 -k MAC
h -t 12.030025000 -s 0 -d -1 -p AODV -e 48 -c 2 -a 0 -i 0 -k MAC
+ -t 14.000000000 -s 0 -d -1 -p AODV -e 48 -c 2 -a 0 -i 0 -k RTR 
- -t 14.000000000 -s 0 -d -1 -p AODV -e 48 -c 2 -a 0 -i 0 -k RTR
h -t 14.000000000 -s 0 -d -1 -p AODV -e 48 -c 2 -a 0 -i 0 -k RTR
+ -t 14.064025000 -s 0 -d -1 -p AODV -e 48 -c 2 -a 0 -i 0 -k MAC 
- -t 14.064025000 -s 0 -d -1 -p AODV -e 48 -c 2 -a 0 -i 0 -k MAC
h -t 14.064025000 -s 0 -d -1 -p AODV -e 48 -c 2 -a 0 -i 0 -k MAC
n -t 15.000000 -s 1 -x 490.000000 -y 285.000000 -U -5.000000 -V 0.000000 -T 89.000000
+ -t 15.000000000 -s 0 -d -1 -p tcp -e 40 -c 2 -a 0 -i 1 -k AGT 
- -t 15.000000000 -s 0 -d -1 -p tcp -e 40 -c 2 -a 0 -i 1 -k AGT
h -t 15.000000000 -s 0 -d -1 -p tcp -e 40 -c 2 -a 0 -i 1 -k AGT
+ -t 18.000000000 -s 0 -d -1 -p AODV -e 48 -c 2 -a 0 -i 0 -k RTR 
- -t 18.000000000 -s 0 -d -1 -p AODV -e 48 -c 2 -a 0 -i 0 -k RTR
h -t 18.000000000 -s 0 -d -1 -p AODV -e 48 -c 2 -a 0 -i 0 -k RTR
+ -t 18.022025000 -s 0 -d -1 -p AODV -e 48 -c 2 -a 0 -i 0 -k MAC 
- -t 18.022025000 -s 0 -d -1 -p AODV -e 48 -c 2 -a 0 -i 0 -k MAC
h -t 18.022025000 -s 0 -d -1 -p AODV -e 48 -c 2 -a 0 -i 0 -k MAC
+ -t 21.000000000 -s 0 -d -1 -p tcp -e 40 -c 2 -a 0 -i 2 -k AGT 
- -t 21.000000000 -s 0 -d -1 -p tcp -e 40 -c 2 -a 0 -i 2 -k AGT
h -t 21.000000000 -s 0 -d -1 -p tcp -e 40 -c 2 -a 0 -i 2 -k AGT
+ -t 23.500000000 -s 0 -d -1 -p AODV -e 48 -c 2 -a 0 -i 0 -k RTR 
- -t 23.500000000 -s 0 -d -1 -p AODV -e 48 -c 2 -a 0 -i 0 -k RTR
h -t 23.500000000 -s 0 -d -1 -p AODV -e 48 -c 2 -a 0 -i 0 -k RTR
+ -t 23.548025000 -s 0 -d -1 -p AODV -e 48 -c 2 -a 0 -i 0 -k MAC 
- -t 23.548025000 -s 0 -d -1 -p AODV -e 48 -c 2 -a 0 -i 0 -k MAC
h -t 23.548025000 -s 0 -d -1 -p AODV -e 48 -c 2 -a 0 -i 0 -k MAC
r -t 23.591025789 -s 2 -d -1 -p AODV -e 48 -c 2 -a 0 -i 0 -k MAC
r -t 23.591050789 -s 2 -d -1 -p AODV -e 48 -c 2 -a 0 -i 0 -k RTR
+ -t 23.599042344 -s 2 -d -1 -p AODV -e 48 -c 2 -a 0 -i 0 -k RTR 
- -t 23.599042344 -s 2 -d -1 -p AODV -e 48 -c 2 -a 0 -i 0 -k RTR
h -t 23.599042344 -s 2 -d -1 -p AODV -e 48 -c 2 -a 0 -i 0 -k RTR
+ -t 23.613067344 -s 2 -d -1 -p AODV -e 48 -c 2 -a 0 -i 0 -k MAC 
- -t 23.613067344 -s 2 -d -1 -p AODV -e 48 -c 2 -a 0 -i 0 -k MAC
h -t 23.613067344 -s 2 -d -1 -p AODV -e 48 -c 2 -a 0 -i 0 -k MAC
r -t 23.656068132 -s 0 -d -1 -p AODV -e 48 -c 2 -a 0 -i 0 -k MAC
r -t 23.656093132 -s 0 -d -1 -p AODV -e 48 -c 2 -a 0 -i 0 -k RTR
d -t 31.000000000 -s 0 -d -1 -p tcp -e 40 -c 2 -a 0 -i 0 -k RTR
d -t 31.000000000 -s 0 -d -1 -p tcp -e 40 -c 2 -a 0 -i 1 -k RTR
d -t 31.000000000 -s 0 -d -1 -p tcp -e 40 -c 2 -a 0 -i 2 -k RTR
+ -t 33.000000000 -s 0 -d -1 -p tcp -e 40 -c 2 -a 0 -i 3 -k AGT 
- -t 33.000000000 -s 0 -d -1 -p tcp -e 40 -c 2 -a 0 -i 3 -k AGT
h -t 33.000000000 -s 0 -d -1 -p tcp -e 40 -c 2 -a 0 -i 3 -k AGT
+ -t 41.000000000 -s 0 -d -1 -p AODV -e 48 -c 2 -a 0 -i 0 -k RTR 
- -t 41.000000000 -s 0 -d -1 -p AODV -e 48 -c 2 -a 0 -i 0 -k RTR
h -t 41.000000000 -s 0 -d -1 -p AODV -e 48 -c 2 -a 0 -i 0 -k RTR
+ -t 41.040025000 -s 0 -d -1 -p AODV -e 48 -c 2 -a 0 -i 0 -k MAC 
- -t 41.040025000 -s 0 -d -1 -p AODV -e 48 -c 2 -a 0 -i 0 -k MAC
h -t 41.040025000 -s 0 -d -1 -p AODV -e 48 -c 2 -a 0 -i 0 -k MAC
r -t 41.083025623 -s 2 -d -1 -p AODV -e 48 -c 2 -a 0 -i 0 -k MAC
r -t 41.083050623 -s 2 -d -1 -p AODV -e 48 -c 2 -a 0 -i 0 -k RTR
+ -t 41.085396640 -s 2 -d -1 -p AODV -e 48 -c 2 -a 0 -i 0 -k RTR 
- -t 41.085396640 -s 2 -d -1 -p AODV -e 48 -c 2 -a 0 -i 0 -k RTR
h -t 41.085396640 -s 2 -d -1 -p AODV -e 48 -c 2 -a 0 -i 0 -k RTR
+ -t 41.157421640 -s 2 -d -1 -p AODV -e 48 -c 2 -a 0 -i 0 -k MAC 
- -t 41.157421640 -s 2 -d -1 -p AODV -e 48 -c 2 -a 0 -i 0 -k MAC
h -t 41.157421640 -s 2 -d -1 -p AODV -e 48 -c 2 -a 0 -i 0 -k MAC
r -t 41.200422261 -s 0 -d -1 -p AODV -e 48 -c 2 -a 0 -i 0 -k MAC
r -t 41.200422353 -s 1 -d -1 -p AODV -e 48 -c 2 -a 0 -i 0 -k MAC
r -t 41.200447261 -s 0 -d -1 -p AODV -e 48 -c 2 -a 0 -i 0 -k RTR
r -t 41.200447353 -s 1 -d -1 -p AODV -e 48 -c 2 -a 0 -i 0 -k RTR
+ -t 41.200447353 -s 1 -d 2 -p AODV -e 44 -c 2 -a 0 -i 0 -k RTR 
- -t 41.200447353 -s 1 -d 2 -p AODV -e 44 -c 2 -a 0 -i 0 -k RTR
h -t 41.200447353 -s 1 -d 2 -p AODV -e 44 -c 2 -a 0 -i 0 -k RTR
+ -t 41.262452353 -s 1 -d -1 -p ARP -e 28 -c 2 -a 0 -i 0 -k MAC 
- -t 41.262452353 -s 1 -d -1 -p ARP -e 28 -c 2 -a 0 -i 0 -k MAC
h -t 41.262452353 -s 1 -d -1 -p ARP -e 28 -c 2 -a 0 -i 0 -k MAC
r -t 41.305453065 -s 2 -d -1 -p ARP -e 28 -c 2 -a 0 -i 0 -k MAC
+ -t 41.349458065 -s 2 -d -1 -p smac -e 10 -c 2 -a 0 -i 0 -k MAC 
- -t 41.349458065 -s 2 -d -1 -p smac -e 10 -c 2 -a 0 -i 0 -k MAC
h -t 41.349458065 -s 2 -d -1 -p smac -e 10 -c 2 -a 0 -i 0 -k MAC
+ -t 41.360458775 -s 1 -d -1 -p smac -e 10 -c 2 -a 0 -i 0 -k MAC 
- -t 41.360458775 -s 1 -d -1 -p smac -e 10 -c 2 -a 0 -i 0 -k MAC
h -t 41.360458775 -s 1 -d -1 -p smac -e 10 -c 2 -a 0 -i 0 -k MAC
+ -t 41.371459485 -s 2 -d -1 -p ARP -e 28 -c 2 -a 0 -i 0 -k MAC 
- -t 41.371459485 -s 2 -d -1 -p ARP -e 28 -c 2 -a 0 -i 0 -k MAC
h -t 41.371459485 -s 2 -d -1 -p ARP -e 28 -c 2 -a 0 -i 0 -k MAC
+ -t 41.414460195 -s 1 -d -1 -p smac -e 10 -c 2 -a 0 -i 0 -k MAC 
- -t 41.414460195 -s 1 -d -1 -p smac -e 10 -c 2 -a 0 -i 0 -k MAC
h -t 41.414460195 -s 1 -d -1 -p smac -e 10 -c 2 -a 0 -i 0 -k MAC
r -t 41.414460195 -s 1 -d -1 -p ARP -e 28 -c 2 -a 0 -i 0 -k MAC
+ -t 41.459458775 -s 1 -d -1 -p smac -e 10 -c 2 -a 0 -i 0 -k MAC 
- -t 41.459458775 -s 1 -d -1 -p smac -e 10 -c 2 -a 0 -i 0 -k MAC
h -t 41.459458775 -s 1 -d -1 -p smac -e 10 -c 2 -a 0 -i 0 -k MAC
+ -t 41.470459484 -s 2 -d -1 -p smac -e 10 -c 2 -a 0 -i 0 -k MAC 
- -t 41.470459484 -s 2 -d -1 -p smac -e 10 -c 2 -a 0 -i 0 -k MAC
h -t 41.470459484 -s 2 -d -1 -p smac -e 10 -c 2 -a 0 -i 0 -k MAC
+ -t 41.481460192 -s 1 -d 2 -p AODV -e 44 -c 2 -a 0 -i 0 -k MAC 
- -t 41.481460192 -s 1 -d 2 -p AODV -e 44 -c 2 -a 0 -i 0 -k MAC
h -t 41.481460192 -s 1 -d 2 -p AODV -e 44 -c 2 -a 0 -i 0 -k MAC
+ -t 41.524460900 -s 2 -d -1 -p smac -e 10 -c 2 -a 0 -i 0 -k MAC 
- -t 41.524460900 -s 2 -d -1 -p smac -e 10 -c 2 -a 0 -i 0 -k MAC
h -t 41.524460900 -s 2 -d -1 -p smac -e 10 -c 2 -a 0 -i 0 -k MAC
r -t 41.524460900 -s 2 -d 2 -p AODV -e 44 -c 2 -a 0 -i 0 -k MAC
+ -t 41.524485900 -s 2 -d 0 -p AODV -e 44 -c 2 -a 0 -i 0 -k RTR 
- -t 41.524485900 -s 2 -d 0 -p AODV -e 44 -c 2 -a 0 -i 0 -k RTR
h -t 41.524485900 -s 2 -d 0 -p AODV -e 44 -c 2 -a 0 -i 0 -k RTR
+ -t 41.601459484 -s 2 -d -1 -p ARP -e 28 -c 2 -a 0 -i 0 -k MAC 
- -t 41.601459484 -s 2 -d -1 -p ARP -e 28 -c 2 -a 0 -i 0 -k MAC
h -t 41.601459484 -s 2 -d -1 -p ARP -e 28 -c 2 -a 0 -i 0 -k MAC
r -t 41.644460101 -s 0 -d -1 -p ARP -e 28 -c 2 -a 0 -i 0 -k MAC
r -t 41.644460190 -s 1 -d -1 -p ARP -e 28 -c 2 -a 0 -i 0 -k MAC
+ -t 41.666465101 -s 0 -d -1 -p smac -e 10 -c 2 -a 0 -i 0 -k MAC 
- -t 41.666465101 -s 0 -d -1 -p smac -e 10 -c 2 -a 0 -i 0 -k MAC
h -t 41.666465101 -s 0 -d -1 -p smac -e 10 -c 2 -a 0 -i 0 -k MAC
+ -t 41.677465717 -s 2 -d -1 -p smac -e 10 -c 2 -a 0 -i 0 -k MAC 
- -t 41.677465717 -s 2 -d -1 -p smac -e 10 -c 2 -a 0 -i 0 -k MAC
h -t 41.677465717 -s 2 -d -1 -p smac -e 10 -c 2 -a 0 -i 0 -k MAC
+ -t 41.688466334 -s 0 -d -1 -p ARP -e 28 -c 2 -a 0 -i 0 -k MAC 
- -t 41.688466334 -s 0 -d -1 -p ARP -e 28 -c 2 -a 0 -i 0 -k MAC
h -t 41.688466334 -s 0 -d -1 -p ARP -e 28 -c 2 -a 0 -i 0 -k MAC
+ -t 41.731466950 -s 2 -d -1 -p smac -e 10 -c 2 -a 0 -i 0 -k MAC 
- -t 41.731466950 -s 2 -d -1 -p smac -e 10 -c 2 -a 0 -i 0 -k MAC
h -t 41.731466950 -s 2 -d -1 -p smac -e 10 -c 2 -a 0 -i 0 -k MAC
r -t 41.731466950 -s 2 -d -1 -p ARP -e 28 -c 2 -a 0 -i 0 -k MAC
+ -t 41.787465717 -s 2 -d -1 -p smac -e 10 -c 2 -a 0 -i 0 -k MAC 
- -t 41.787465717 -s 2 -d -1 -p smac -e 10 -c 2 -a 0 -i 0 -k MAC
h -t 41.787465717 -s 2 -d -1 -p smac -e 10 -c 2 -a 0 -i 0 -k MAC
+ -t 41.798466333 -s 0 -d -1 -p smac -e 10 -c 2 -a 0 -i 0 -k MAC 
- -t 41.798466333 -s 0 -d -1 -p smac -e 10 -c 2 -a 0 -i 0 -k MAC
h -t 41.798466333 -s 0 -d -1 -p smac -e 10 -c 2 -a 0 -i 0 -k MAC
+ -t 41.809466948 -s 2 -d 0 -p AODV -e 44 -c 2 -a 0 -i 0 -k MAC 
- -t 41.809466948 -s 2 -d 0 -p AODV -e 44 -c 2 -a 0 -i 0 -k MAC
h -t 41.809466948 -s 2 -d 0 -p AODV -e 44 -c 2 -a 0 -i 0 -k MAC
+ -t 41.852467564 -s 0 -d -1 -p smac -e 10 -c 2 -a 0 -i 0 -k MAC 
- -t 41.852467564 -s 0 -d -1 -p smac -e 10 -c 2 -a 0 -i 0 -k MAC
h -t 41.852467564 -s 0 -d -1 -p smac -e 10 -c 2 -a 0 -i 0 -k MAC
r -t 41.852467564 -s 0 -d 0 -p AODV -e 44 -c 2 -a 0 -i 0 -k MAC
+ -t 41.852492564 -s 0 -d 2 -p tcp -e 40 -c 2 -a 0 -i 3 -k RTR 
- -t 41.852492564 -s 0 -d 2 -p tcp -e 40 -c 2 -a 0 -i 3 -k RTR
h -t 41.852492564 -s 0 -d 2 -p tcp -e 40 -c 2 -a 0 -i 3 -k RTR
+ -t 41.883466333 -s 0 -d -1 -p smac -e 10 -c 2 -a 0 -i 0 -k MAC 
- -t 41.883466333 -s 0 -d -1 -p smac -e 10 -c 2 -a 0 -i 0 -k MAC
h -t 41.883466333 -s 0 -d -1 -p smac -e 10 -c 2 -a 0 -i 0 -k MAC
+ -t 41.894466948 -s 2 -d -1 -p smac -e 10 -c 2 -a 0 -i 0 -k MAC 
- -t 41.894466948 -s 2 -d -1 -p smac -e 10 -c 2 -a 0 -i 0 -k MAC
h -t 41.894466948 -s 2 -d -1 -p smac -e 10 -c 2 -a 0 -i 0 -k MAC
+ -t 41.905467562 -s 0 -d 2 -p tcp -e 40 -c 2 -a 0 -i 3 -k MAC 
- -t 41.905467562 -s 0 -d 2 -p tcp -e 40 -c 2 -a 0 -i 3 -k MAC
h -t 41.905467562 -s 0 -d 2 -p tcp -e 40 -c 2 -a 0 -i 3 -k MAC
+ -t 41.948468176 -s 2 -d -1 -p smac -e 10 -c 2 -a 0 -i 0 -k MAC 
- -t 41.948468176 -s 2 -d -1 -p smac -e 10 -c 2 -a 0 -i 0 -k MAC
h -t 41.948468176 -s 2 -d -1 -p smac -e 10 -c 2 -a 0 -i 0 -k MAC
r -t 41.948468176 -s 2 -d 2 -p tcp -e 40 -c 2 -a 0 -i 3 -k MAC
+ -t 41.948493176 -s 2 -d 1 -p tcp -e 40 -c 2 -a 0 -i 3 -k RTR 
- -t 41.948493176 -s 2 -d 1 -p tcp -e 40 -c 2 -a 0 -i 3 -k RTR
h -t 41.948493176 -s 2 -d 1 -p tcp -e 40 -c 2 -a 0 -i 3 -k RTR
+ -t 42.031466948 -s 2 -d -1 -p smac -e 10 -c 2 -a 0 -i 0 -k MAC 
- -t 42.031466948 -s 2 -d -1 -p smac -e 10 -c 2 -a 0 -i 0 -k MAC
h -t 42.031466948 -s 2 -d -1 -p smac -e 10 -c 2 -a 0 -i 0 -k MAC
+ -t 42.042467647 -s 1 -d -1 -p smac -e 10 -c 2 -a 0 -i 0 -k MAC 
- -t 42.042467647 -s 1 -d -1 -p smac -e 10 -c 2 -a 0 -i 0 -k MAC
h -t 42.042467647 -s 1 -d -1 -p smac -e 10 -c 2 -a 0 -i 0 -k MAC
+ -t 42.053468346 -s 2 -d 1 -p tcp -e 40 -c 2 -a 0 -i 3 -k MAC 
- -t 42.053468346 -s 2 -d 1 -p tcp -e 40 -c 2 -a 0 -i 3 -k MAC
h -t 42.053468346 -s 2 -d 1 -p tcp -e 40 -c 2 -a 0 -i 3 -k MAC
+ -t 42.096469044 -s 1 -d -1 -p smac -e 10 -c 2 -a 0 -i 0 -k MAC 
- -t 42.096469044 -s 1 -d -1 -p smac -e 10 -c 2 -a 0 -i 0 -k MAC
h -t 42.096469044 -s 1 -d -1 -p smac -e 10 -c 2 -a 0 -i 0 -k MAC
r -t 42.096469044 -s 1 -d 1 -p tcp -e 40 -c 2 -a 0 -i 3 -k MAC
r -t 42.096494044 -s 1 -d 1 -p tcp -e 40 -c 2 -a 0 -i 3 -k AGT
+ -t 42.096494044 -s 1 -d -1 -p ack -e 40 -c 2 -a 0 -i 4 -k AGT 
- -t 42.096494044 -s 1 -d -1 -p ack -e 40 -c 2 -a 0 -i 4 -k AGT
h -t 42.096494044 -s 1 -d -1 -p ack -e 40 -c 2 -a 0 -i 4 -k AGT
+ -t 42.096494044 -s 1 -d 2 -p ack -e 40 -c 2 -a 0 -i 4 -k RTR 
- -t 42.096494044 -s 1 -d 2 -p ack -e 40 -c 2 -a 0 -i 4 -k RTR
h -t 42.096494044 -s 1 -d 2 -p ack -e 40 -c 2 -a 0 -i 4 -k RTR
+ -t 42.120467647 -s 1 -d -1 -p smac -e 10 -c 2 -a 0 -i 0 -k MAC 
- -t 42.120467647 -s 1 -d -1 -p smac -e 10 -c 2 -a 0 -i 0 -k MAC
h -t 42.120467647 -s 1 -d -1 -p smac -e 10 -c 2 -a 0 -i 0 -k MAC
+ -t 42.131468344 -s 2 -d -1 -p smac -e 10 -c 2 -a 0 -i 0 -k MAC 
- -t 42.131468344 -s 2 -d -1 -p smac -e 10 -c 2 -a 0 -i 0 -k MAC
h -t 42.131468344 -s 2 -d -1 -p smac -e 10 -c 2 -a 0 -i 0 -k MAC
+ -t 42.142469042 -s 1 -d 2 -p ack -e 40 -c 2 -a 0 -i 4 -k MAC 
- -t 42.142469042 -s 1 -d 2 -p ack -e 40 -c 2 -a 0 -i 4 -k MAC
h -t 42.142469042 -s 1 -d 2 -p ack -e 40 -c 2 -a 0 -i 4 -k MAC
+ -t 42.185469739 -s 2 -d -1 -p smac -e 10 -c 2 -a 0 -i 0 -k MAC 
- -t 42.185469739 -s 2 -d -1 -p smac -e 10 -c 2 -a 0 -i 0 -k MAC
h -t 42.185469739 -s 2 -d -1 -p smac -e 10 -c 2 -a 0 -i 0 -k MAC
r -t 42.185469739 -s 2 -d 2 -p ack -e 40 -c 2 -a 0 -i 4 -k MAC
+ -t 42.185494739 -s 2 -d 0 -p ack -e 40 -c 2 -a 0 -i 4 -k RTR 
- -t 42.185494739 -s 2 -d 0 -p ack -e 40 -c 2 -a 0 -i 4 -k RTR
h -t 42.185494739 -s 2 -d 0 -p ack -e 40 -c 2 -a 0 -i 4 -k RTR
+ -t 42.212468344 -s 2 -d -1 -p smac -e 10 -c 2 -a 0 -i 0 -k MAC 
- -t 42.212468344 -s 2 -d -1 -p smac -e 10 -c 2 -a 0 -i 0 -k MAC
h -t 42.212468344 -s 2 -d -1 -p smac -e 10 -c 2 -a 0 -i 0 -k MAC
+ -t 42.223468956 -s 0 -d -1 -p smac -e 10 -c 2 -a 0 -i 0 -k MAC 
- -t 42.223468956 -s 0 -d -1 -p smac -e 10 -c 2 -a 0 -i 0 -k MAC
h -t 42.223468956 -s 0 -d -1 -p smac -e 10 -c 2 -a 0 -i 0 -k MAC
+ -t 42.234469567 -s 2 -d 0 -p ack -e 40 -c 2 -a 0 -i 4 -k MAC 
- -t 42.234469567 -s 2 -d 0 -p ack -e 40 -c 2 -a 0 -i 4 -k MAC
h -t 42.234469567 -s 2 -d 0 -p ack -e 40 -c 2 -a 0 -i 4 -k MAC
+ -t 42.277470179 -s 0 -d -1 -p smac -e 10 -c 2 -a 0 -i 0 -k MAC 
- -t 42.277470179 -s 0 -d -1 -p smac -e 10 -c 2 -a 0 -i 0 -k MAC
h -t 42.277470179 -s 0 -d -1 -p smac -e 10 -c 2 -a 0 -i 0 -k MAC
r -t 42.277470179 -s 0 -d 0 -p ack -e 40 -c 2 -a 0 -i 4 -k MAC
r -t 42.277495179 -s 0 -d 0 -p ack -e 40 -c 2 -a 0 -i 4 -k AGT
+ -t 42.277495179 -s 0 -d -1 -p tcp -e 1540 -c 2 -a 0 -i 5 -k AGT 
- -t 42.277495179 -s 0 -d -1 -p tcp -e 1540 -c 2 -a 0 -i 5 -k AGT
h -t 42.277495179 -s 0 -d -1 -p tcp -e 1540 -c 2 -a 0 -i 5 -k AGT
+ -t 42.277495179 -s 0 -d 2 -p tcp -e 1540 -c 2 -a 0 -i 5 -k RTR 
- -t 42.277495179 -s 0 -d 2 -p tcp -e 1540 -c 2 -a 0 -i 5 -k RTR
h -t 42.277495179 -s 0 -d 2 -p tcp -e 1540 -c 2 -a 0 -i 5 -k RTR
+ -t 42.313468956 -s 0 -d -1 -p smac -e 10 -c 2 -a 0 -i 0 -k MAC 
- -t 42.313468956 -s 0 -d -1 -p smac -e 10 -c 2 -a 0 -i 0 -k MAC
h -t 42.313468956 -s 0 -d -1 -p smac -e 10 -c 2 -a 0 -i 0 -k MAC
+ -t 42.324469566 -s 2 -d -1 -p smac -e 10 -c 2 -a 0 -i 0 -k MAC 
- -t 42.324469566 -s 2 -d -1 -p smac -e 10 -c 2 -a 0 -i 0 -k MAC
h -t 42.324469566 -s 2 -d -1 -p smac -e 10 -c 2 -a 0 -i 0 -k MAC
+ -t 42.335470177 -s 0 -d 2 -p tcp -e 1540 -c 2 -a 0 -i 5 -k MAC 
- -t 42.335470177 -s 0 -d 2 -p tcp -e 1540 -c 2 -a 0 -i 5 -k MAC
h -t 42.335470177 -s 0 -d 2 -p tcp -e 1540 -c 2 -a 0 -i 5 -k MAC
+ -t 42.378470787 -s 2 -d -1 -p smac -e 10 -c 2 -a 0 -i 0 -k MAC 
- -t 42.378470787 -s 2 -d -1 -p smac -e 10 -c 2 -a 0 -i 0 -k MAC
h -t 42.378470787 -s 2 -d -1 -p smac -e 10 -c 2 -a 0 -i 0 -k MAC
r -t 42.378470787 -s 2 -d 2 -p tcp -e 1540 -c 2 -a 0 -i 5 -k MAC
+ -t 42.378495787 -s 2 -d 1 -p tcp -e 1540 -c 2 -a 0 -i 5 -k RTR 
- -t 42.378495787 -s 2 -d 1 -p tcp -e 1540 -c 2 -a 0 -i 5 -k RTR
h -t 42.378495787 -s 2 -d 1 -p tcp -e 1540 -c 2 -a 0 -i 5 -k RTR
+ -t 42.462469566 -s 2 -d -1 -p smac -e 10 -c 2 -a 0 -i 0 -k MAC 
- -t 42.462469566 -s 2 -d -1 -p smac -e 10 -c 2 -a 0 -i 0 -k MAC
h -t 42.462469566 -s 2 -d -1 -p smac -e 10 -c 2 -a 0 -i 0 -k MAC
+ -t 42.473470258 -s 1 -d -1 -p smac -e 10 -c 2 -a 0 -i 0 -k MAC 
- -t 42.473470258 -s 1 -d -1 -p smac -e 10 -c 2 -a 0 -i 0 -k MAC
h -t 42.473470258 -s 1 -d -1 -p smac -e 10 -c 2 -a 0 -i 0 -k MAC
+ -t 42.484470950 -s 2 -d 1 -p tcp -e 1540 -c 2 -a 0 -i 5 -k MAC 
- -t 42.484470950 -s 2 -d 1 -p tcp -e 1540 -c 2 -a 0 -i 5 -k MAC
h -t 42.484470950 -s 2 -d 1 -p tcp -e 1540 -c 2 -a 0 -i 5 -k MAC
+ -t 42.527471642 -s 1 -d -1 -p smac -e 10 -c 2 -a 0 -i 0 -k MAC 
- -t 42.527471642 -s 1 -d -1 -p smac -e 10 -c 2 -a 0 -i 0 -k MAC
h -t 42.527471642 -s 1 -d -1 -p smac -e 10 -c 2 -a 0 -i 0 -k MAC
r -t 42.527471642 -s 1 -d 1 -p tcp -e 1540 -c 2 -a 0 -i 5 -k MAC
r -t 42.527496642 -s 1 -d 1 -p tcp -e 1540 -c 2 -a 0 -i 5 -k AGT
+ -t 42.527496642 -s 1 -d -1 -p ack -e 40 -c 2 -a 0 -i 6 -k AGT 
- -t 42.527496642 -s 1 -d -1 -p ack -e 40 -c 2 -a 0 -i 6 -k AGT
h -t 42.527496642 -s 1 -d -1 -p ack -e 40 -c 2 -a 0 -i 6 -k AGT
+ -t 42.527496642 -s 1 -d 2 -p ack -e 40 -c 2 -a 0 -i 6 -k RTR 
- -t 42.527496642 -s 1 -d 2 -p ack -e 40 -c 2 -a 0 -i 6 -k RTR
h -t 42.527496642 -s 1 -d 2 -p ack -e 40 -c 2 -a 0 -i 6 -k RTR
+ -t 42.596470258 -s 1 -d -1 -p smac -e 10 -c 2 -a 0 -i 0 -k MAC 
- -t 42.596470258 -s 1 -d -1 -p smac -e 10 -c 2 -a 0 -i 0 -k MAC
h -t 42.596470258 -s 1 -d -1 -p smac -e 10 -c 2 -a 0 -i 0 -k MAC
+ -t 42.607470948 -s 2 -d -1 -p smac -e 10 -c 2 -a 0 -i 0 -k MAC 
- -t 42.607470948 -s 2 -d -1 -p smac -e 10 -c 2 -a 0 -i 0 -k MAC
h -t 42.607470948 -s 2 -d -1 -p smac -e 10 -c 2 -a 0 -i 0 -k MAC
+ -t 42.618471638 -s 1 -d 2 -p ack -e 40 -c 2 -a 0 -i 6 -k MAC 
- -t 42.618471638 -s 1 -d 2 -p ack -e 40 -c 2 -a 0 -i 6 -k MAC
h -t 42.618471638 -s 1 -d 2 -p ack -e 40 -c 2 -a 0 -i 6 -k MAC
+ -t 42.661472328 -s 2 -d -1 -p smac -e 10 -c 2 -a 0 -i 0 -k MAC 
- -t 42.661472328 -s 2 -d -1 -p smac -e 10 -c 2 -a 0 -i 0 -k MAC
h -t 42.661472328 -s 2 -d -1 -p smac -e 10 -c 2 -a 0 -i 0 -k MAC
r -t 42.661472328 -s 2 -d 2 -p ack -e 40 -c 2 -a 0 -i 6 -k MAC
+ -t 42.661497328 -s 2 -d 0 -p ack -e 40 -c 2 -a 0 -i 6 -k RTR 
- -t 42.661497328 -s 2 -d 0 -p ack -e 40 -c 2 -a 0 -i 6 -k RTR
h -t 42.661497328 -s 2 -d 0 -p ack -e 40 -c 2 -a 0 -i 6 -k RTR
+ -t 42.734470948 -s 2 -d -1 -p smac -e 10 -c 2 -a 0 -i 0 -k MAC 
- -t 42.734470948 -s 2 -d -1 -p smac -e 10 -c 2 -a 0 -i 0 -k MAC
h -t 42.734470948 -s 2 -d -1 -p smac -e 10 -c 2 -a 0 -i 0 -k MAC
+ -t 42.745471555 -s 0 -d -1 -p smac -e 10 -c 2 -a 0 -i 0 -k MAC 
- -t 42.745471555 -s 0 -d -1 -p smac -e 10 -c 2 -a 0 -i 0 -k MAC
h -t 42.745471555 -s 0 -d -1 -p smac -e 10 -c 2 -a 0 -i 0 -k MAC
+ -t 42.756472162 -s 2 -d 0 -p ack -e 40 -c 2 -a 0 -i 6 -k MAC 
- -t 42.756472162 -s 2 -d 0 -p ack -e 40 -c 2 -a 0 -i 6 -k MAC
h -t 42.756472162 -s 2 -d 0 -p ack -e 40 -c 2 -a 0 -i 6 -k MAC
+ -t 42.799472768 -s 0 -d -1 -p smac -e 10 -c 2 -a 0 -i 0 -k MAC 
- -t 42.799472768 -s 0 -d -1 -p smac -e 10 -c 2 -a 0 -i 0 -k MAC
h -t 42.799472768 -s 0 -d -1 -p smac -e 10 -c 2 -a 0 -i 0 -k MAC
r -t 42.799472768 -s 0 -d 0 -p ack -e 40 -c 2 -a 0 -i 6 -k MAC
r -t 42.799497768 -s 0 -d 0 -p ack -e 40 -c 2 -a 0 -i 6 -k AGT
+ -t 42.799497768 -s 0 -d -1 -p tcp -e 1540 -c 2 -a 0 -i 7 -k AGT 
- -t 42.799497768 -s 0 -d -1 -p tcp -e 1540 -c 2 -a 0 -i 7 -k AGT
h -t 42.799497768 -s 0 -d -1 -p tcp -e 1540 -c 2 -a 0 -i 7 -k AGT
+ -t 42.799497768 -s 0 -d -1 -p tcp -e 1540 -c 2 -a 0 -i 8 -k AGT 
- -t 42.799497768 -s 0 -d -1 -p tcp -e 1540 -c 2 -a 0 -i 8 -k AGT
h -t 42.799497768 -s 0 -d -1 -p tcp -e 1540 -c 2 -a 0 -i 8 -k AGT
+ -t 42.799497768 -s 0 -d 2 -p tcp -e 1540 -c 2 -a 0 -i 7 -k RTR 
- -t 42.799497768 -s 0 -d 2 -p tcp -e 1540 -c 2 -a 0 -i 7 -k RTR
h -t 42.799497768 -s 0 -d 2 -p tcp -e 1540 -c 2 -a 0 -i 7 -k RTR
+ -t 42.799497768 -s 0 -d 2 -p tcp -e 1540 -c 2 -a 0 -i 8 -k RTR 
- -t 42.799497768 -s 0 -d 2 -p tcp -e 1540 -c 2 -a 0 -i 8 -k RTR
h -t 42.799497768 -s 0 -d 2 -p tcp -e 1540 -c 2 -a 0 -i 8 -k RTR
+ -t 42.837471555 -s 0 -d -1 -p smac -e 10 -c 2 -a 0 -i 0 -k MAC 
- -t 42.837471555 -s 0 -d -1 -p smac -e 10 -c 2 -a 0 -i 0 -k MAC
h -t 42.837471555 -s 0 -d -1 -p smac -e 10 -c 2 -a 0 -i 0 -k MAC
+ -t 42.848472161 -s 2 -d -1 -p smac -e 10 -c 2 -a 0 -i 0 -k MAC 
- -t 42.848472161 -s 2 -d -1 -p smac -e 10 -c 2 -a 0 -i 0 -k MAC
h -t 42.848472161 -s 2 -d -1 -p smac -e 10 -c 2 -a 0 -i 0 -k MAC
+ -t 42.859472766 -s 0 -d 2 -p tcp -e 1540 -c 2 -a 0 -i 7 -k MAC 
- -t 42.859472766 -s 0 -d 2 -p tcp -e 1540 -c 2 -a 0 -i 7 -k MAC
h -t 42.859472766 -s 0 -d 2 -p tcp -e 1540 -c 2 -a 0 -i 7 -k MAC
+ -t 42.902473372 -s 2 -d -1 -p smac -e 10 -c 2 -a 0 -i 0 -k MAC 
- -t 42.902473372 -s 2 -d -1 -p smac -e 10 -c 2 -a 0 -i 0 -k MAC
h -t 42.902473372 -s 2 -d -1 -p smac -e 10 -c 2 -a 0 -i 0 -k MAC
r -t 42.902473372 -s 2 -d 2 -p tcp -e 1540 -c 2 -a 0 -i 7 -k MAC
+ -t 42.902498372 -s 2 -d 1 -p tcp -e 1540 -c 2 -a 0 -i 7 -k RTR 
- -t 42.902498372 -s 2 -d 1 -p tcp -e 1540 -c 2 -a 0 -i 7 -k RTR
h -t 42.902498372 -s 2 -d 1 -p tcp -e 1540 -c 2 -a 0 -i 7 -k RTR
+ -t 42.929472161 -s 2 -d -1 -p smac -e 10 -c 2 -a 0 -i 0 -k MAC 
- -t 42.929472161 -s 2 -d -1 -p smac -e 10 -c 2 -a 0 -i 0 -k MAC
h -t 42.929472161 -s 2 -d -1 -p smac -e 10 -c 2 -a 0 -i 0 -k MAC
+ -t 42.940472845 -s 1 -d -1 -p smac -e 10 -c 2 -a 0 -i 0 -k MAC 
- -t 42.940472845 -s 1 -d -1 -p smac -e 10 -c 2 -a 0 -i 0 -k MAC
h -t 42.940472845 -s 1 -d -1 -p smac -e 10 -c 2 -a 0 -i 0 -k MAC
+ -t 42.951473529 -s 2 -d 1 -p tcp -e 1540 -c 2 -a 0 -i 7 -k MAC 
- -t 42.951473529 -s 2 -d 1 -p tcp -e 1540 -c 2 -a 0 -i 7 -k MAC
h -t 42.951473529 -s 2 -d 1 -p tcp -e 1540 -c 2 -a 0 -i 7 -k MAC
+ -t 42.994474214 -s 1 -d -1 -p smac -e 10 -c 2 -a 0 -i 0 -k MAC 
- -t 42.994474214 -s 1 -d -1 -p smac -e 10 -c 2 -a 0 -i 0 -k MAC
h -t 42.994474214 -s 1 -d -1 -p smac -e 10 -c 2 -a 0 -i 0 -k MAC
r -t 42.994474214 -s 1 -d 1 -p tcp -e 1540 -c 2 -a 0 -i 7 -k MAC
r -t 42.994499214 -s 1 -d 1 -p tcp -e 1540 -c 2 -a 0 -i 7 -k AGT
+ -t 42.994499214 -s 1 -d -1 -p ack -e 40 -c 2 -a 0 -i 9 -k AGT 
- -t 42.994499214 -s 1 -d -1 -p ack -e 40 -c 2 -a 0 -i 9 -k AGT
h -t 42.994499214 -s 1 -d -1 -p ack -e 40 -c 2 -a 0 -i 9 -k AGT
+ -t 42.994499214 -s 1 -d 2 -p ack -e 40 -c 2 -a 0 -i 9 -k RTR 
- -t 42.994499214 -s 1 -d 2 -p ack -e 40 -c 2 -a 0 -i 9 -k RTR
h -t 42.994499214 -s 1 -d 2 -p ack -e 40 -c 2 -a 0 -i 9 -k RTR
+ -t 43.056472845 -s 1 -d -1 -p smac -e 10 -c 2 -a 0 -i 0 -k MAC 
- -t 43.056472845 -s 1 -d -1 -p smac -e 10 -c 2 -a 0 -i 0 -k MAC
h -t 43.056472845 -s 1 -d -1 -p smac -e 10 -c 2 -a 0 -i 0 -k MAC
+ -t 43.067473528 -s 2 -d -1 -p smac -e 10 -c 2 -a 0 -i 0 -k MAC 
- -t 43.067473528 -s 2 -d -1 -p smac -e 10 -c 2 -a 0 -i 0 -k MAC
h -t 43.067473528 -s 2 -d -1 -p smac -e 10 -c 2 -a 0 -i 0 -k MAC
+ -t 43.078474210 -s 1 -d 2 -p ack -e 40 -c 2 -a 0 -i 9 -k MAC 
- -t 43.078474210 -s 1 -d 2 -p ack -e 40 -c 2 -a 0 -i 9 -k MAC
h -t 43.078474210 -s 1 -d 2 -p ack -e 40 -c 2 -a 0 -i 9 -k MAC
+ -t 43.121474892 -s 2 -d -1 -p smac -e 10 -c 2 -a 0 -i 0 -k MAC 
- -t 43.121474892 -s 2 -d -1 -p smac -e 10 -c 2 -a 0 -i 0 -k MAC
h -t 43.121474892 -s 2 -d -1 -p smac -e 10 -c 2 -a 0 -i 0 -k MAC
r -t 43.121474892 -s 2 -d 2 -p ack -e 40 -c 2 -a 0 -i 9 -k MAC
+ -t 43.121499892 -s 2 -d 0 -p ack -e 40 -c 2 -a 0 -i 9 -k RTR 
- -t 43.121499892 -s 2 -d 0 -p ack -e 40 -c 2 -a 0 -i 9 -k RTR
h -t 43.121499892 -s 2 -d 0 -p ack -e 40 -c 2 -a 0 -i 9 -k RTR
+ -t 43.182473528 -s 2 -d -1 -p smac -e 10 -c 2 -a 0 -i 0 -k MAC 
- -t 43.182473528 -s 2 -d -1 -p smac -e 10 -c 2 -a 0 -i 0 -k MAC
h -t 43.182473528 -s 2 -d -1 -p smac -e 10 -c 2 -a 0 -i 0 -k MAC
+ -t 43.193474130 -s 0 -d -1 -p smac -e 10 -c 2 -a 0 -i 0 -k MAC 
- -t 43.193474130 -s 0 -d -1 -p smac -e 10 -c 2 -a 0 -i 0 -k MAC
h -t 43.193474130 -s 0 -d -1 -p smac -e 10 -c 2 -a 0 -i 0 -k MAC
+ -t 43.204474732 -s 2 -d 0 -p ack -e 40 -c 2 -a 0 -i 9 -k MAC 
- -t 43.204474732 -s 2 -d 0 -p ack -e 40 -c 2 -a 0 -i 9 -k MAC
h -t 43.204474732 -s 2 -d 0 -p ack -e 40 -c 2 -a 0 -i 9 -k MAC
+ -t 43.247475335 -s 0 -d -1 -p smac -e 10 -c 2 -a 0 -i 0 -k MAC 
- -t 43.247475335 -s 0 -d -1 -p smac -e 10 -c 2 -a 0 -i 0 -k MAC
h -t 43.247475335 -s 0 -d -1 -p smac -e 10 -c 2 -a 0 -i 0 -k MAC
r -t 43.247475335 -s 0 -d 0 -p ack -e 40 -c 2 -a 0 -i 9 -k MAC
r -t 43.247500335 -s 0 -d 0 -p ack -e 40 -c 2 -a 0 -i 9 -k AGT
+ -t 43.247500335 -s 0 -d -1 -p tcp -e 1540 -c 2 -a 0 -i 10 -k AGT 
- -t 43.247500335 -s 0 -d -1 -p tcp -e 1540 -c 2 -a 0 -i 10 -k AGT
h -t 43.247500335 -s 0 -d -1 -p tcp -e 1540 -c 2 -a 0 -i 10 -k AGT
+ -t 43.247500335 -s 0 -d 2 -p tcp -e 1540 -c 2 -a 0 -i 10 -k RTR 
- -t 43.247500335 -s 0 -d 2 -p tcp -e 1540 -c 2 -a 0 -i 10 -k RTR
h -t 43.247500335 -s 0 -d 2 -p tcp -e 1540 -c 2 -a 0 -i 10 -k RTR
+ -t 43.320474130 -s 0 -d -1 -p smac -e 10 -c 2 -a 0 -i 0 -k MAC 
- -t 43.320474130 -s 0 -d -1 -p smac -e 10 -c 2 -a 0 -i 0 -k MAC
h -t 43.320474130 -s 0 -d -1 -p smac -e 10 -c 2 -a 0 -i 0 -k MAC
+ -t 43.331474731 -s 2 -d -1 -p smac -e 10 -c 2 -a 0 -i 0 -k MAC 
- -t 43.331474731 -s 2 -d -1 -p smac -e 10 -c 2 -a 0 -i 0 -k MAC
h -t 43.331474731 -s 2 -d -1 -p smac -e 10 -c 2 -a 0 -i 0 -k MAC
+ -t 43.342475332 -s 0 -d 2 -p tcp -e 1540 -c 2 -a 0 -i 8 -k MAC 
- -t 43.342475332 -s 0 -d 2 -p tcp -e 1540 -c 2 -a 0 -i 8 -k MAC
h -t 43.342475332 -s 0 -d 2 -p tcp -e 1540 -c 2 -a 0 -i 8 -k MAC
+ -t 43.385475933 -s 2 -d -1 -p smac -e 10 -c 2 -a 0 -i 0 -k MAC 
- -t 43.385475933 -s 2 -d -1 -p smac -e 10 -c 2 -a 0 -i 0 -k MAC
h -t 43.385475933 -s 2 -d -1 -p smac -e 10 -c 2 -a 0 -i 0 -k MAC
r -t 43.385475933 -s 2 -d 2 -p tcp -e 1540 -c 2 -a 0 -i 8 -k MAC
+ -t 43.385500933 -s 2 -d 1 -p tcp -e 1540 -c 2 -a 0 -i 8 -k RTR 
- -t 43.385500933 -s 2 -d 1 -p tcp -e 1540 -c 2 -a 0 -i 8 -k RTR
h -t 43.385500933 -s 2 -d 1 -p tcp -e 1540 -c 2 -a 0 -i 8 -k RTR
+ -t 43.442474731 -s 2 -d -1 -p smac -e 10 -c 2 -a 0 -i 0 -k MAC 
- -t 43.442474731 -s 2 -d -1 -p smac -e 10 -c 2 -a 0 -i 0 -k MAC
h -t 43.442474731 -s 2 -d -1 -p smac -e 10 -c 2 -a 0 -i 0 -k MAC
+ -t 43.453475407 -s 1 -d -1 -p smac -e 10 -c 2 -a 0 -i 0 -k MAC 
- -t 43.453475407 -s 1 -d -1 -p smac -e 10 -c 2 -a 0 -i 0 -k MAC
h -t 43.453475407 -s 1 -d -1 -p smac -e 10 -c 2 -a 0 -i 0 -k MAC
+ -t 43.464476083 -s 2 -d 1 -p tcp -e 1540 -c 2 -a 0 -i 8 -k MAC 
- -t 43.464476083 -s 2 -d 1 -p tcp -e 1540 -c 2 -a 0 -i 8 -k MAC
h -t 43.464476083 -s 2 -d 1 -p tcp -e 1540 -c 2 -a 0 -i 8 -k MAC
+ -t 43.507476759 -s 1 -d -1 -p smac -e 10 -c 2 -a 0 -i 0 -k MAC 
- -t 43.507476759 -s 1 -d -1 -p smac -e 10 -c 2 -a 0 -i 0 -k MAC
h -t 43.507476759 -s 1 -d -1 -p smac -e 10 -c 2 -a 0 -i 0 -k MAC
r -t 43.507476759 -s 1 -d 1 -p tcp -e 1540 -c 2 -a 0 -i 8 -k MAC
r -t 43.507501759 -s 1 -d 1 -p tcp -e 1540 -c 2 -a 0 -i 8 -k AGT
+ -t 43.507501759 -s 1 -d -1 -p ack -e 40 -c 2 -a 0 -i 11 -k AGT 
- -t 43.507501759 -s 1 -d -1 -p ack -e 40 -c 2 -a 0 -i 11 -k AGT
h -t 43.507501759 -s 1 -d -1 -p ack -e 40 -c 2 -a 0 -i 11 -k AGT
+ -t 43.507501759 -s 1 -d 2 -p ack -e 40 -c 2 -a 0 -i 11 -k RTR 
- -t 43.507501759 -s 1 -d 2 -p ack -e 40 -c 2 -a 0 -i 11 -k RTR
h -t 43.507501759 -s 1 -d 2 -p ack -e 40 -c 2 -a 0 -i 11 -k RTR
+ -t 43.544475407 -s 1 -d -1 -p smac -e 10 -c 2 -a 0 -i 0 -k MAC 
- -t 43.544475407 -s 1 -d -1 -p smac -e 10 -c 2 -a 0 -i 0 -k MAC
h -t 43.544475407 -s 1 -d -1 -p smac -e 10 -c 2 -a 0 -i 0 -k MAC
+ -t 43.555476082 -s 2 -d -1 -p smac -e 10 -c 2 -a 0 -i 0 -k MAC 
- -t 43.555476082 -s 2 -d -1 -p smac -e 10 -c 2 -a 0 -i 0 -k MAC
h -t 43.555476082 -s 2 -d -1 -p smac -e 10 -c 2 -a 0 -i 0 -k MAC
+ -t 43.566476756 -s 1 -d 2 -p ack -e 40 -c 2 -a 0 -i 11 -k MAC 
- -t 43.566476756 -s 1 -d 2 -p ack -e 40 -c 2 -a 0 -i 11 -k MAC
h -t 43.566476756 -s 1 -d 2 -p ack -e 40 -c 2 -a 0 -i 11 -k MAC
+ -t 43.609477430 -s 2 -d -1 -p smac -e 10 -c 2 -a 0 -i 0 -k MAC 
- -t 43.609477430 -s 2 -d -1 -p smac -e 10 -c 2 -a 0 -i 0 -k MAC
h -t 43.609477430 -s 2 -d -1 -p smac -e 10 -c 2 -a 0 -i 0 -k MAC
r -t 43.609477430 -s 2 -d 2 -p ack -e 40 -c 2 -a 0 -i 11 -k MAC
+ -t 43.609502430 -s 2 -d 0 -p ack -e 40 -c 2 -a 0 -i 11 -k RTR 
- -t 43.609502430 -s 2 -d 0 -p ack -e 40 -c 2 -a 0 -i 11 -k RTR
h -t 43.609502430 -s 2 -d 0 -p ack -e 40 -c 2 -a 0 -i 11 -k RTR
+ -t 43.683476082 -s 2 -d -1 -p smac -e 10 -c 2 -a 0 -i 0 -k MAC 
- -t 43.683476082 -s 2 -d -1 -p smac -e 10 -c 2 -a 0 -i 0 -k MAC
h -t 43.683476082 -s 2 -d -1 -p smac -e 10 -c 2 -a 0 -i 0 -k MAC
+ -t 43.694476679 -s 0 -d -1 -p smac -e 10 -c 2 -a 0 -i 0 -k MAC 
- -t 43.694476679 -s 0 -d -1 -p smac -e 10 -c 2 -a 0 -i 0 -k MAC
h -t 43.694476679 -s 0 -d -1 -p smac -e 10 -c 2 -a 0 -i 0 -k MAC
+ -t 43.705477277 -s 2 -d 0 -p ack -e 40 -c 2 -a 0 -i 11 -k MAC 
- -t 43.705477277 -s 2 -d 0 -p ack -e 40 -c 2 -a 0 -i 11 -k MAC
h -t 43.705477277 -s 2 -d 0 -p ack -e 40 -c 2 -a 0 -i 11 -k MAC
+ -t 43.748477875 -s 0 -d -1 -p smac -e 10 -c 2 -a 0 -i 0 -k MAC 
- -t 43.748477875 -s 0 -d -1 -p smac -e 10 -c 2 -a 0 -i 0 -k MAC
h -t 43.748477875 -s 0 -d -1 -p smac -e 10 -c 2 -a 0 -i 0 -k MAC
r -t 43.748477875 -s 0 -d 0 -p ack -e 40 -c 2 -a 0 -i 11 -k MAC
r -t 43.748502875 -s 0 -d 0 -p ack -e 40 -c 2 -a 0 -i 11 -k AGT
+ -t 43.748502875 -s 0 -d -1 -p tcp -e 1540 -c 2 -a 0 -i 12 -k AGT 
- -t 43.748502875 -s 0 -d -1 -p tcp -e 1540 -c 2 -a 0 -i 12 -k AGT
h -t 43.748502875 -s 0 -d -1 -p tcp -e 1540 -c 2 -a 0 -i 12 -k AGT
+ -t 43.748502875 -s 0 -d 2 -p tcp -e 1540 -c 2 -a 0 -i 12 -k RTR 
- -t 43.748502875 -s 0 -d 2 -p tcp -e 1540 -c 2 -a 0 -i 12 -k RTR
h -t 43.748502875 -s 0 -d 2 -p tcp -e 1540 -c 2 -a 0 -i 12 -k RTR
+ -t 43.770476679 -s 0 -d -1 -p smac -e 10 -c 2 -a 0 -i 0 -k MAC 
- -t 43.770476679 -s 0 -d -1 -p smac -e 10 -c 2 -a 0 -i 0 -k MAC
h -t 43.770476679 -s 0 -d -1 -p smac -e 10 -c 2 -a 0 -i 0 -k MAC
+ -t 43.781477276 -s 2 -d -1 -p smac -e 10 -c 2 -a 0 -i 0 -k MAC 
- -t 43.781477276 -s 2 -d -1 -p smac -e 10 -c 2 -a 0 -i 0 -k MAC
h -t 43.781477276 -s 2 -d -1 -p smac -e 10 -c 2 -a 0 -i 0 -k MAC
+ -t 43.792477873 -s 0 -d 2 -p tcp -e 1540 -c 2 -a 0 -i 10 -k MAC 
- -t 43.792477873 -s 0 -d 2 -p tcp -e 1540 -c 2 -a 0 -i 10 -k MAC
h -t 43.792477873 -s 0 -d 2 -p tcp -e 1540 -c 2 -a 0 -i 10 -k MAC
+ -t 43.835478470 -s 2 -d -1 -p smac -e 10 -c 2 -a 0 -i 0 -k MAC 
- -t 43.835478470 -s 2 -d -1 -p smac -e 10 -c 2 -a 0 -i 0 -k MAC
h -t 43.835478470 -s 2 -d -1 -p smac -e 10 -c 2 -a 0 -i 0 -k MAC
r -t 43.835478470 -s 2 -d 2 -p tcp -e 1540 -c 2 -a 0 -i 10 -k MAC
+ -t 43.835503470 -s 2 -d 1 -p tcp -e 1540 -c 2 -a 0 -i 10 -k RTR 
- -t 43.835503470 -s 2 -d 1 -p tcp -e 1540 -c 2 -a 0 -i 10 -k RTR
h -t 43.835503470 -s 2 -d 1 -p tcp -e 1540 -c 2 -a 0 -i 10 -k RTR
+ -t 43.885477276 -s 2 -d -1 -p smac -e 10 -c 2 -a 0 -i 0 -k MAC 
- -t 43.885477276 -s 2 -d -1 -p smac -e 10 -c 2 -a 0 -i 0 -k MAC
h -t 43.885477276 -s 2 -d -1 -p smac -e 10 -c 2 -a 0 -i 0 -k MAC
+ -t 43.896477945 -s 1 -d -1 -p smac -e 10 -c 2 -a 0 -i 0 -k MAC 
- -t 43.896477945 -s 1 -d -1 -p smac -e 10 -c 2 -a 0 -i 0 -k MAC
h -t 43.896477945 -s 1 -d -1 -p smac -e 10 -c 2 -a 0 -i 0 -k MAC
+ -t 43.907478614 -s 2 -d 1 -p tcp -e 1540 -c 2 -a 0 -i 10 -k MAC 