s 0.477566739 _3_ RTR  --- 0 message 32 [0 0 0 0] ------- [3:255 -1:255 32 0] 
s 0.478181739 _3_ MAC  --- 0 message 90 [0 ffffffff 3 800] ------- [3:255 -1:255 32 0] 
r 0.478902546 _0_ MAC  --- 0 message 32 [0 ffffffff 3 800] ------- [3:255 -1:255 32 0] 
r 0.478927546 _0_ RTR  --- 0 message 32 [0 ffffffff 3 800] ------- [3:255 -1:255 32 0] 
s 0.619296198 _5_ RTR  --- 1 message 32 [0 0 0 0] ------- [5:255 -1:255 32 0] 
s 0.619531198 _5_ MAC  --- 1 message 90 [0 ffffffff 5 800] ------- [5:255 -1:255 32 0] 
r 0.620252011 _0_ MAC  --- 1 message 32 [0 ffffffff 5 800] ------- [5:255 -1:255 32 0] 
r 0.620277011 _0_ RTR  --- 1 message 32 [0 ffffffff 5 800] ------- [5:255 -1:255 32 0] 
s 0.626864932 _1_ RTR  --- 2 message 32 [0 0 0 0] ------- [1:255 -1:255 32 0] 
s 0.627139932 _1_ MAC  --- 2 message 90 [0 ffffffff 1 800] ------- [1:255 -1:255 32 0] 
r 0.627860743 _0_ MAC  --- 2 message 32 [0 ffffffff 1 800] ------- [1:255 -1:255 32 0] 
r 0.627885743 _0_ RTR  --- 2 message 32 [0 ffffffff 1 800] ------- [1:255 -1:255 32 0] 
s 1.000000000 _0_ AGT  --- 3 tcp 40 [0 0 0 0] ------- [0:0 1:0 32 0] [0 0] 0 0
r 1.000000000 _0_ RTR  --- 3 tcp 40 [0 0 0 0] ------- [0:0 1:0 32 0] [0 0] 0 0
s 1.000000000 _0_ RTR  --- 3 tcp 60 [0 0 0 0] ------- [0:0 1:0 32 1] [0 0] 0 0
s 1.000000000 _5_ AGT  --- 4 tcp 40 [0 0 0 0] ------- [5:0 0:4 32 0] [0 0] 0 0
r 1.000000000 _5_ RTR  --- 4 tcp 40 [0 0 0 0] ------- [5:0 0:4 32 0] [0 0] 0 0
s 1.000000000 _4_ AGT  --- 5 tcp 40 [0 0 0 0] ------- [4:0 0:1 32 0] [0 0] 0 0
r 1.000000000 _4_ RTR  --- 5 tcp 40 [0 0 0 0] ------- [4:0 0:1 32 0] [0 0] 0 0
s 1.000000000 _3_ AGT  --- 6 tcp 40 [0 0 0 0] ------- [3:0 0:2 32 0] [0 0] 0 0
r 1.000000000 _3_ RTR  --- 6 tcp 40 [0 0 0 0] ------- [3:0 0:2 32 0] [0 0] 0 0
s 1.000000000 _2_ AGT  --- 7 tcp 40 [0 0 0 0] ------- [2:0 0:3 32 0] [0 0] 0 0
r 1.000000000 _2_ RTR  --- 7 tcp 40 [0 0 0 0] ------- [2:0 0:3 32 0] [0 0] 0 0
s 1.000075000 _0_ MAC  --- 0 ARP 86 [0 ffffffff 0 806] ------- [REQUEST 0/0 0/1]
r 1.000763773 _4_ MAC  --- 0 ARP 28 [0 ffffffff 0 806] ------- [REQUEST 0/0 0/1]
r 1.000763806 _3_ MAC  --- 0 ARP 28 [0 ffffffff 0 806] ------- [REQUEST 0/0 0/1]
r 1.000763809 _2_ MAC  --- 0 ARP 28 [0 ffffffff 0 806] ------- [REQUEST 0/0 0/1]
r 1.000763812 _1_ MAC  --- 0 ARP 28 [0 ffffffff 0 806] ------- [REQUEST 0/0 0/1]
r 1.000763813 _5_ MAC  --- 0 ARP 28 [0 ffffffff 0 806] ------- [REQUEST 0/0 0/1]
s 1.001258812 _1_ MAC  --- 0 RTS 44 [52e 0 1 0] 
r 1.001611623 _0_ MAC  --- 0 RTS 44 [52e 0 1 0] 
s 1.001621623 _0_ MAC  --- 0 CTS 38 [3f4 1 0 0] 
r 1.001926435 _1_ MAC  --- 0 CTS 38 [3f4 1 0 0] 
s 1.001936435 _1_ MAC  --- 0 ARP 86 [13a 0 1 806] ------- [REPLY 1/1 0/0]
r 1.002625246 _0_ MAC  --- 0 ARP 28 [13a 0 1 806] ------- [REPLY 1/1 0/0]
s 1.002635246 _0_ MAC  --- 0 ACK 38 [0 1 0 0] 
r 1.002940058 _1_ MAC  --- 0 ACK 38 [0 1 0 0] 
s 1.003169246 _0_ MAC  --- 0 RTS 44 [62e 1 0 0] 
r 1.003522058 _1_ MAC  --- 0 RTS 44 [62e 1 0 0] 
s 1.003532058 _1_ MAC  --- 0 CTS 38 [4f4 0 0 0] 
r 1.003836869 _0_ MAC  --- 0 CTS 38 [4f4 0 0 0] 
s 1.003846869 _0_ MAC  --- 3 tcp 118 [13a 1 0 800] ------- [0:0 1:0 32 1] [0 0] 0 0
r 1.004791681 _1_ MAC  --- 3 tcp 60 [13a 1 0 800] ------- [0:0 1:0 32 1] [0 0] 1 0
s 1.004801681 _1_ MAC  --- 0 ACK 38 [0 0 0 0] 
r 1.004816681 _1_ AGT  --- 3 tcp 60 [13a 1 0 800] ------- [0:0 1:0 32 1] [0 0] 1 0
s 1.004816681 _1_ AGT  --- 8 ack 40 [0 0 0 0] ------- [1:0 0:0 32 0] [0 0] 0 0
r 1.004816681 _1_ RTR  --- 8 ack 40 [0 0 0 0] ------- [1:0 0:0 32 0] [0 0] 0 0
r 1.005106492 _0_ MAC  --- 0 ACK 38 [0 0 0 0] 
s 1.279901881 _4_ RTR  --- 9 message 32 [0 0 0 0] ------- [4:255 -1:255 32 0] 
s 1.280016881 _4_ MAC  --- 9 message 90 [0 ffffffff 4 800] ------- [4:255 -1:255 32 0] 
r 1.280737654 _0_ MAC  --- 9 message 32 [0 ffffffff 4 800] ------- [4:255 -1:255 32 0] 
r 1.280762654 _0_ RTR  --- 9 message 32 [0 ffffffff 4 800] ------- [4:255 -1:255 32 0] 
s 1.605933226 _0_ RTR  --- 10 message 32 [0 0 0 0] ------- [0:255 -1:255 32 0] 
s 1.606088226 _0_ MAC  --- 10 message 90 [0 ffffffff 0 800] ------- [0:255 -1:255 32 0] 
r 1.606808999 _4_ MAC  --- 10 message 32 [0 ffffffff 0 800] ------- [0:255 -1:255 32 0] 
r 1.606809032 _3_ MAC  --- 10 message 32 [0 ffffffff 0 800] ------- [0:255 -1:255 32 0] 
r 1.606809035 _2_ MAC  --- 10 message 32 [0 ffffffff 0 800] ------- [0:255 -1:255 32 0] 
r 1.606809037 _1_ MAC  --- 10 message 32 [0 ffffffff 0 800] ------- [0:255 -1:255 32 0] 
r 1.606809039 _5_ MAC  --- 10 message 32 [0 ffffffff 0 800] ------- [0:255 -1:255 32 0] 
r 1.606833999 _4_ RTR  --- 10 message 32 [0 ffffffff 0 800] ------- [0:255 -1:255 32 0] 
s 1.606833999 _4_ RTR  --- 5 tcp 80 [0 0 0 0] ------- [4:0 0:1 32 0] [0 0] 0 0
r 1.606834032 _3_ RTR  --- 10 message 32 [0 ffffffff 0 800] ------- [0:255 -1:255 32 0] 
s 1.606834032 _3_ RTR  --- 6 tcp 80 [0 0 0 0] ------- [3:0 0:2 32 0] [0 0] 0 0
r 1.606834035 _2_ RTR  --- 10 message 32 [0 ffffffff 0 800] ------- [0:255 -1:255 32 0] 
s 1.606834035 _2_ RTR  --- 7 tcp 80 [0 0 0 0] ------- [2:0 0:3 32 0] [0 0] 0 0
r 1.606834037 _1_ RTR  --- 10 message 32 [0 ffffffff 0 800] ------- [0:255 -1:255 32 0] 
s 1.606834037 _1_ RTR  --- 8 ack 80 [0 0 0 0] ------- [1:0 0:0 32 0] [0 0] 0 0
r 1.606834039 _5_ RTR  --- 10 message 32 [0 ffffffff 0 800] ------- [0:255 -1:255 32 0] 
s 1.606834039 _5_ RTR  --- 4 tcp 80 [0 0 0 0] ------- [5:0 0:4 32 0] [0 0] 0 0
s 1.607009032 _3_ MAC  --- 0 RTS 44 [6ce 0 3 0] 
r 1.607361839 _0_ MAC  --- 0 RTS 44 [6ce 0 3 0] 
s 1.607371839 _0_ MAC  --- 0 CTS 38 [594 3 0 0] 
r 1.607676645 _3_ MAC  --- 0 CTS 38 [594 3 0 0] 
s 1.607686645 _3_ MAC  --- 6 tcp 138 [13a 0 3 800] ------- [3:0 0:2 32 0] [0 0] 0 0
r 1.608791452 _0_ MAC  --- 6 tcp 80 [13a 0 3 800] ------- [3:0 0:2 32 0] [0 0] 1 0
s 1.608801452 _0_ MAC  --- 0 ACK 38 [0 3 0 0] 
r 1.608816452 _0_ AGT  --- 6 tcp 80 [13a 0 3 800] ------- [3:0 0:2 32 0] [0 0] 1 0
s 1.608816452 _0_ AGT  --- 11 ack 40 [0 0 0 0] ------- [0:2 3:0 32 0] [0 0] 0 0
r 1.608816452 _0_ RTR  --- 11 ack 40 [0 0 0 0] ------- [0:2 3:0 32 0] [0 0] 0 0
s 1.608816452 _0_ RTR  --- 11 ack 60 [0 0 0 0] ------- [0:2 3:0 32 3] [0 0] 0 0
r 1.609106258 _3_ MAC  --- 0 ACK 38 [0 3 0 0] 
s 1.609295452 _0_ MAC  --- 0 ARP 86 [0 ffffffff 0 806] ------- [REQUEST 0/0 0/3]
r 1.609984225 _4_ MAC  --- 0 ARP 28 [0 ffffffff 0 806] ------- [REQUEST 0/0 0/3]
r 1.609984258 _3_ MAC  --- 0 ARP 28 [0 ffffffff 0 806] ------- [REQUEST 0/0 0/3]
r 1.609984261 _2_ MAC  --- 0 ARP 28 [0 ffffffff 0 806] ------- [REQUEST 0/0 0/3]
r 1.609984263 _1_ MAC  --- 0 ARP 28 [0 ffffffff 0 806] ------- [REQUEST 0/0 0/3]
r 1.609984265 _5_ MAC  --- 0 ARP 28 [0 ffffffff 0 806] ------- [REQUEST 0/0 0/3]
s 1.610054225 _4_ MAC  --- 0 RTS 44 [6ce 0 4 0] 
s 1.610054265 _5_ MAC  --- 0 RTS 44 [6ce 0 5 0] 
D 1.610055077 _0_ MAC  COL 0 RTS 44 [6ce 0 4 0] 
D 1.610407077 _0_ MAC  COL 0 RTS 44 [6ce 0 5 0] 
s 1.610841808 _1_ MAC  --- 0 RTS 44 [6ce 0 1 0] 
r 1.611194620 _0_ MAC  --- 0 RTS 44 [6ce 0 1 0] 
s 1.611204620 _0_ MAC  --- 0 CTS 38 [594 1 0 0] 
r 1.611509431 _1_ MAC  --- 0 CTS 38 [594 1 0 0] 
s 1.611519431 _1_ MAC  --- 8 ack 138 [13a 0 1 800] ------- [1:0 0:0 32 0] [0 0] 0 0
r 1.612624243 _0_ MAC  --- 8 ack 80 [13a 0 1 800] ------- [1:0 0:0 32 0] [0 0] 1 0
s 1.612634243 _0_ MAC  --- 0 ACK 38 [0 1 0 0] 
r 1.612649243 _0_ AGT  --- 8 ack 80 [13a 0 1 800] ------- [1:0 0:0 32 0] [0 0] 1 0
s 1.612649243 _0_ AGT  --- 12 tcp 1540 [0 0 0 0] ------- [0:0 1:0 32 0] [1 0] 0 0
r 1.612649243 _0_ RTR  --- 12 tcp 1540 [0 0 0 0] ------- [0:0 1:0 32 0] [1 0] 0 0
s 1.612649243 _0_ RTR  --- 12 tcp 1560 [0 0 0 0] ------- [0:0 1:0 32 1] [1 0] 0 0
s 1.612649243 _0_ AGT  --- 13 tcp 1540 [0 0 0 0] ------- [0:0 1:0 32 0] [2 0] 0 0
r 1.612649243 _0_ RTR  --- 13 tcp 1540 [0 0 0 0] ------- [0:0 1:0 32 0] [2 0] 0 0
s 1.612649243 _0_ RTR  --- 13 tcp 1560 [0 0 0 0] ------- [0:0 1:0 32 1] [2 0] 0 0
r 1.612939054 _1_ MAC  --- 0 ACK 38 [0 1 0 0] 
s 1.613008243 _0_ MAC  --- 0 RTS 44 [350e 1 0 0] 
r 1.613361054 _1_ MAC  --- 0 RTS 44 [350e 1 0 0] 
s 1.613371054 _1_ MAC  --- 0 CTS 38 [33d4 0 0 0] 
r 1.613675866 _0_ MAC  --- 0 CTS 38 [33d4 0 0 0] 
s 1.613685866 _0_ MAC  --- 12 tcp 1618 [13a 1 0 800] ------- [0:0 1:0 32 1] [1 0] 0 0
r 1.626630677 _1_ MAC  --- 12 tcp 1560 [13a 1 0 800] ------- [0:0 1:0 32 1] [1 0] 1 0
s 1.626640677 _1_ MAC  --- 0 ACK 38 [0 0 0 0] 
r 1.626655677 _1_ AGT  --- 12 tcp 1560 [13a 1 0 800] ------- [0:0 1:0 32 1] [1 0] 1 0
s 1.626655677 _1_ AGT  --- 14 ack 40 [0 0 0 0] ------- [1:0 0:0 32 0] [1 0] 0 0
r 1.626655677 _1_ RTR  --- 14 ack 40 [0 0 0 0] ------- [1:0 0:0 32 0] [1 0] 0 0
s 1.626655677 _1_ RTR  --- 14 ack 60 [0 0 0 0] ------- [1:0 0:0 32 0] [1 0] 0 0
r 1.626945489 _0_ MAC  --- 0 ACK 38 [0 0 0 0] 
s 1.627275489 _0_ MAC  --- 0 RTS 44 [350e 1 0 0] 
r 1.627628300 _1_ MAC  --- 0 RTS 44 [350e 1 0 0] 
s 1.627638300 _1_ MAC  --- 0 CTS 38 [33d4 0 0 0] 
r 1.627943112 _0_ MAC  --- 0 CTS 38 [33d4 0 0 0] 
s 1.627953112 _0_ MAC  --- 13 tcp 1618 [13a 1 0 800] ------- [0:0 1:0 32 1] [2 0] 0 0
s 1.639638342 _2_ RTR  --- 15 message 44 [0 0 0 0] ------- [2:255 -1:255 32 0] 
r 1.640897923 _1_ MAC  --- 13 tcp 1560 [13a 1 0 800] ------- [0:0 1:0 32 1] [2 0] 1 0
s 1.640907923 _1_ MAC  --- 0 ACK 38 [0 0 0 0] 
r 1.640922923 _1_ AGT  --- 13 tcp 1560 [13a 1 0 800] ------- [0:0 1:0 32 1] [2 0] 1 0
s 1.640922923 _1_ AGT  --- 16 ack 40 [0 0 0 0] ------- [1:0 0:0 32 0] [2 0] 0 0
r 1.640922923 _1_ RTR  --- 16 ack 40 [0 0 0 0] ------- [1:0 0:0 32 0] [2 0] 0 0
s 1.640922923 _1_ RTR  --- 16 ack 60 [0 0 0 0] ------- [1:0 0:0 32 0] [2 0] 0 0
r 1.641212735 _0_ MAC  --- 0 ACK 38 [0 0 0 0] 
s 1.641481923 _1_ MAC  --- 0 RTS 44 [62e 0 1 0] 
r 1.641834735 _0_ MAC  --- 0 RTS 44 [62e 0 1 0] 
s 1.641844735 _0_ MAC  --- 0 CTS 38 [4f4 1 0 0] 
r 1.642149547 _1_ MAC  --- 0 CTS 38 [4f4 1 0 0] 
s 1.642159547 _1_ MAC  --- 14 ack 118 [13a 0 1 800] ------- [1:0 0:0 32 0] [1 0] 0 0
r 1.643104358 _0_ MAC  --- 14 ack 60 [13a 0 1 800] ------- [1:0 0:0 32 0] [1 0] 1 0
s 1.643114358 _0_ MAC  --- 0 ACK 38 [0 1 0 0] 
r 1.643129358 _0_ AGT  --- 14 ack 60 [13a 0 1 800] ------- [1:0 0:0 32 0] [1 0] 1 0
s 1.643129358 _0_ AGT  --- 17 tcp 1540 [0 0 0 0] ------- [0:0 1:0 32 0] [3 0] 0 0
r 1.643129358 _0_ RTR  --- 17 tcp 1540 [0 0 0 0] ------- [0:0 1:0 32 0] [3 0] 0 0
s 1.643129358 _0_ RTR  --- 17 tcp 1560 [0 0 0 0] ------- [0:0 1:0 32 1] [3 0] 0 0
s 1.643129358 _0_ AGT  --- 18 tcp 1540 [0 0 0 0] ------- [0:0 1:0 32 0] [4 0] 0 0
r 1.643129358 _0_ RTR  --- 18 tcp 1540 [0 0 0 0] ------- [0:0 1:0 32 0] [4 0] 0 0
s 1.643129358 _0_ RTR  --- 18 tcp 1560 [0 0 0 0] ------- [0:0 1:0 32 1] [4 0] 0 0
r 1.643419170 _1_ MAC  --- 0 ACK 38 [0 1 0 0] 
s 1.643469170 _1_ MAC  --- 0 RTS 44 [62e 0 1 0] 
r 1.643821981 _0_ MAC  --- 0 RTS 44 [62e 0 1 0] 
s 1.643831981 _0_ MAC  --- 0 CTS 38 [4f4 1 0 0] 
r 1.644136793 _1_ MAC  --- 0 CTS 38 [4f4 1 0 0] 
s 1.644146793 _1_ MAC  --- 16 ack 118 [13a 0 1 800] ------- [1:0 0:0 32 0] [2 0] 0 0
r 1.645091604 _0_ MAC  --- 16 ack 60 [13a 0 1 800] ------- [1:0 0:0 32 0] [2 0] 1 0
s 1.645101604 _0_ MAC  --- 0 ACK 38 [0 1 0 0] 
r 1.645116604 _0_ AGT  --- 16 ack 60 [13a 0 1 800] ------- [1:0 0:0 32 0] [2 0] 1 0
s 1.645116604 _0_ AGT  --- 19 tcp 1540 [0 0 0 0] ------- [0:0 1:0 32 0] [5 0] 0 0
r 1.645116604 _0_ RTR  --- 19 tcp 1540 [0 0 0 0] ------- [0:0 1:0 32 0] [5 0] 0 0
s 1.645116604 _0_ RTR  --- 19 tcp 1560 [0 0 0 0] ------- [0:0 1:0 32 1] [5 0] 0 0
s 1.645116604 _0_ AGT  --- 20 tcp 1540 [0 0 0 0] ------- [0:0 1:0 32 0] [6 0] 0 0
r 1.645116604 _0_ RTR  --- 20 tcp 1540 [0 0 0 0] ------- [0:0 1:0 32 0] [6 0] 0 0
s 1.645116604 _0_ RTR  --- 20 tcp 1560 [0 0 0 0] ------- [0:0 1:0 32 1] [6 0] 0 0
r 1.645406416 _1_ MAC  --- 0 ACK 38 [0 1 0 0] 
s 1.645735604 _0_ MAC  --- 0 RTS 44 [350e 1 0 0] 
r 1.646088416 _1_ MAC  --- 0 RTS 44 [350e 1 0 0] 
s 1.646098416 _1_ MAC  --- 0 CTS 38 [33d4 0 0 0] 
r 1.646403227 _0_ MAC  --- 0 CTS 38 [33d4 0 0 0] 
s 1.646413227 _0_ MAC  --- 17 tcp 1618 [13a 1 0 800] ------- [0:0 1:0 32 1] [3 0] 0 0
r 1.659358039 _1_ MAC  --- 17 tcp 1560 [13a 1 0 800] ------- [0:0 1:0 32 1] [3 0] 1 0
s 1.659368039 _1_ MAC  --- 0 ACK 38 [0 0 0 0] 
r 1.659383039 _1_ AGT  --- 17 tcp 1560 [13a 1 0 800] ------- [0:0 1:0 32 1] [3 0] 1 0
s 1.659383039 _1_ AGT  --- 21 ack 40 [0 0 0 0] ------- [1:0 0:0 32 0] [3 0] 0 0
r 1.659383039 _1_ RTR  --- 21 ack 40 [0 0 0 0] ------- [1:0 0:0 32 0] [3 0] 0 0
s 1.659383039 _1_ RTR  --- 21 ack 60 [0 0 0 0] ------- [1:0 0:0 32 0] [3 0] 0 0
r 1.659672850 _0_ MAC  --- 0 ACK 38 [0 0 0 0] 
s 1.659882850 _0_ MAC  --- 0 RTS 44 [350e 1 0 0] 
r 1.660235662 _1_ MAC  --- 0 RTS 44 [350e 1 0 0] 
s 1.660245662 _1_ MAC  --- 0 CTS 38 [33d4 0 0 0] 
r 1.660550474 _0_ MAC  --- 0 CTS 38 [33d4 0 0 0] 
s 1.660560474 _0_ MAC  --- 18 tcp 1618 [13a 1 0 800] ------- [0:0 1:0 32 1] [4 0] 0 0
r 1.673505285 _1_ MAC  --- 18 tcp 1560 [13a 1 0 800] ------- [0:0 1:0 32 1] [4 0] 1 0
s 1.673515285 _1_ MAC  --- 0 ACK 38 [0 0 0 0] 
r 1.673530285 _1_ AGT  --- 18 tcp 1560 [13a 1 0 800] ------- [0:0 1:0 32 1] [4 0] 1 0
s 1.673530285 _1_ AGT  --- 22 ack 40 [0 0 0 0] ------- [1:0 0:0 32 0] [4 0] 0 0
r 1.673530285 _1_ RTR  --- 22 ack 40 [0 0 0 0] ------- [1:0 0:0 32 0] [4 0] 0 0
s 1.673530285 _1_ RTR  --- 22 ack 60 [0 0 0 0] ------- [1:0 0:0 32 0] [4 0] 0 0
r 1.673820097 _0_ MAC  --- 0 ACK 38 [0 0 0 0] 
s 1.674029285 _1_ MAC  --- 0 RTS 44 [62e 0 1 0] 
r 1.674382097 _0_ MAC  --- 0 RTS 44 [62e 0 1 0] 
s 1.674392097 _0_ MAC  --- 0 CTS 38 [4f4 1 0 0] 
r 1.674696908 _1_ MAC  --- 0 CTS 38 [4f4 1 0 0] 
s 1.674706908 _1_ MAC  --- 21 ack 118 [13a 0 1 800] ------- [1:0 0:0 32 0] [3 0] 0 0
r 1.675651720 _0_ MAC  --- 21 ack 60 [13a 0 1 800] ------- [1:0 0:0 32 0] [3 0] 1 0
s 1.675661720 _0_ MAC  --- 0 ACK 38 [0 1 0 0] 
r 1.675676720 _0_ AGT  --- 21 ack 60 [13a 0 1 800] ------- [1:0 0:0 32 0] [3 0] 1 0
s 1.675676720 _0_ AGT  --- 23 tcp 1540 [0 0 0 0] ------- [0:0 1:0 32 0] [7 0] 0 0
r 1.675676720 _0_ RTR  --- 23 tcp 1540 [0 0 0 0] ------- [0:0 1:0 32 0] [7 0] 0 0
s 1.675676720 _0_ RTR  --- 23 tcp 1560 [0 0 0 0] ------- [0:0 1:0 32 1] [7 0] 0 0
s 1.675676720 _0_ AGT  --- 24 tcp 1540 [0 0 0 0] ------- [0:0 1:0 32 0] [8 0] 0 0
r 1.675676720 _0_ RTR  --- 24 tcp 1540 [0 0 0 0] ------- [0:0 1:0 32 0] [8 0] 0 0
s 1.675676720 _0_ RTR  --- 24 tcp 1560 [0 0 0 0] ------- [0:0 1:0 32 1] [8 0] 0 0
r 1.675966531 _1_ MAC  --- 0 ACK 38 [0 1 0 0] 
s 1.676095720 _0_ MAC  --- 0 RTS 44 [350e 1 0 0] 
s 1.676096531 _1_ MAC  --- 0 RTS 44 [62e 0 1 0] 
s 1.676923411 _2_ MAC  --- 0 RTS 44 [6ce 0 2 0] 
r 1.677276220 _0_ MAC  --- 0 RTS 44 [6ce 0 2 0] 
s 1.677286220 _0_ MAC  --- 0 CTS 38 [594 2 0 0] 
r 1.677591029 _2_ MAC  --- 0 CTS 38 [594 2 0 0] 
s 1.677601029 _2_ MAC  --- 7 tcp 138 [13a 0 2 800] ------- [2:0 0:3 32 0] [0 0] 0 0
r 1.678705838 _0_ MAC  --- 7 tcp 80 [13a 0 2 800] ------- [2:0 0:3 32 0] [0 0] 1 0
s 1.678715838 _0_ MAC  --- 0 ACK 38 [0 2 0 0] 
r 1.678730838 _0_ AGT  --- 7 tcp 80 [13a 0 2 800] ------- [2:0 0:3 32 0] [0 0] 1 0
s 1.678730838 _0_ AGT  --- 25 ack 40 [0 0 0 0] ------- [0:3 2:0 32 0] [0 0] 0 0
r 1.678730838 _0_ RTR  --- 25 ack 40 [0 0 0 0] ------- [0:3 2:0 32 0] [0 0] 0 0
r 1.679020647 _2_ MAC  --- 0 ACK 38 [0 2 0 0] 
s 1.679159908 _1_ MAC  --- 0 RTS 44 [62e 0 1 0] 
r 1.679512720 _0_ MAC  --- 0 RTS 44 [62e 0 1 0] 
s 1.679522720 _0_ MAC  --- 0 CTS 38 [4f4 1 0 0] 
r 1.679827531 _1_ MAC  --- 0 CTS 38 [4f4 1 0 0] 
s 1.679837531 _1_ MAC  --- 22 ack 118 [13a 0 1 800] ------- [1:0 0:0 32 0] [4 0] 0 0
r 1.680782343 _0_ MAC  --- 22 ack 60 [13a 0 1 800] ------- [1:0 0:0 32 0] [4 0] 1 0
s 1.680792343 _0_ MAC  --- 0 ACK 38 [0 1 0 0] 
r 1.680807343 _0_ AGT  --- 22 ack 60 [13a 0 1 800] ------- [1:0 0:0 32 0] [4 0] 1 0
s 1.680807343 _0_ AGT  --- 26 tcp 1540 [0 0 0 0] ------- [0:0 1:0 32 0] [9 0] 0 0
r 1.680807343 _0_ RTR  --- 26 tcp 1540 [0 0 0 0] ------- [0:0 1:0 32 0] [9 0] 0 0
s 1.680807343 _0_ RTR  --- 26 tcp 1560 [0 0 0 0] ------- [0:0 1:0 32 1] [9 0] 0 0
s 1.680807343 _0_ AGT  --- 27 tcp 1540 [0 0 0 0] ------- [0:0 1:0 32 0] [10 0] 0 0
r 1.680807343 _0_ RTR  --- 27 tcp 1540 [0 0 0 0] ------- [0:0 1:0 32 0] [10 0] 0 0
s 1.680807343 _0_ RTR  --- 27 tcp 1560 [0 0 0 0] ------- [0:0 1:0 32 1] [10 0] 0 0
r 1.681097154 _1_ MAC  --- 0 ACK 38 [0 1 0 0] 
s 1.681276428 _3_ MAC  --- 0 RTS 44 [52e 0 3 0] 
r 1.681629234 _0_ MAC  --- 0 RTS 44 [52e 0 3 0] 
s 1.681639234 _0_ MAC  --- 0 CTS 38 [3f4 3 0 0] 
r 1.681944041 _3_ MAC  --- 0 CTS 38 [3f4 3 0 0] 
s 1.681954041 _3_ MAC  --- 0 ARP 86 [13a 0 3 806] ------- [REPLY 3/3 0/0]
r 1.682642847 _0_ MAC  --- 0 ARP 28 [13a 0 3 806] ------- [REPLY 3/3 0/0]
s 1.682652847 _0_ MAC  --- 0 ACK 38 [0 3 0 0] 
r 1.682957654 _3_ MAC  --- 0 ACK 38 [0 3 0 0] 
s 1.683126847 _0_ MAC  --- 0 RTS 44 [350e 1 0 0] 
r 1.683479659 _1_ MAC  --- 0 RTS 44 [350e 1 0 0] 
s 1.683489659 _1_ MAC  --- 0 CTS 38 [33d4 0 0 0] 
r 1.683794470 _0_ MAC  --- 0 CTS 38 [33d4 0 0 0] 
s 1.683804470 _0_ MAC  --- 19 tcp 1618 [13a 1 0 800] ------- [0:0 1:0 32 1] [5 0] 0 0
r 1.696749282 _1_ MAC  --- 19 tcp 1560 [13a 1 0 800] ------- [0:0 1:0 32 1] [5 0] 1 0
s 1.696759282 _1_ MAC  --- 0 ACK 38 [0 0 0 0] 
r 1.696774282 _1_ AGT  --- 19 tcp 1560 [13a 1 0 800] ------- [0:0 1:0 32 1] [5 0] 1 0
s 1.696774282 _1_ AGT  --- 28 ack 40 [0 0 0 0] ------- [1:0 0:0 32 0] [5 0] 0 0
r 1.696774282 _1_ RTR  --- 28 ack 40 [0 0 0 0] ------- [1:0 0:0 32 0] [5 0] 0 0
s 1.696774282 _1_ RTR  --- 28 ack 60 [0 0 0 0] ------- [1:0 0:0 32 0] [5 0] 0 0
r 1.697064093 _0_ MAC  --- 0 ACK 38 [0 0 0 0] 
s 1.697134093 _0_ MAC  --- 0 RTS 44 [350e 1 0 0] 
r 1.697486905 _1_ MAC  --- 0 RTS 44 [350e 1 0 0] 
s 1.697496905 _1_ MAC  --- 0 CTS 38 [33d4 0 0 0] 
r 1.697801716 _0_ MAC  --- 0 CTS 38 [33d4 0 0 0] 
s 1.697811716 _0_ MAC  --- 20 tcp 1618 [13a 1 0 800] ------- [0:0 1:0 32 1] [6 0] 0 0
r 1.710756528 _1_ MAC  --- 20 tcp 1560 [13a 1 0 800] ------- [0:0 1:0 32 1] [6 0] 1 0
s 1.710766528 _1_ MAC  --- 0 ACK 38 [0 0 0 0] 
r 1.710781528 _1_ AGT  --- 20 tcp 1560 [13a 1 0 800] ------- [0:0 1:0 32 1] [6 0] 1 0
s 1.710781528 _1_ AGT  --- 29 ack 40 [0 0 0 0] ------- [1:0 0:0 32 0] [6 0] 0 0
r 1.710781528 _1_ RTR  --- 29 ack 40 [0 0 0 0] ------- [1:0 0:0 32 0] [6 0] 0 0
s 1.710781528 _1_ RTR  --- 29 ack 60 [0 0 0 0] ------- [1:0 0:0 32 0] [6 0] 0 0
r 1.711071340 _0_ MAC  --- 0 ACK 38 [0 0 0 0] 
s 1.711220528 _1_ MAC  --- 0 RTS 44 [62e 0 1 0] 
r 1.711573340 _0_ MAC  --- 0 RTS 44 [62e 0 1 0] 
s 1.711583340 _0_ MAC  --- 0 CTS 38 [4f4 1 0 0] 
r 1.711888151 _1_ MAC  --- 0 CTS 38 [4f4 1 0 0] 
s 1.711898151 _1_ MAC  --- 28 ack 118 [13a 0 1 800] ------- [1:0 0:0 32 0] [5 0] 0 0
r 1.712842963 _0_ MAC  --- 28 ack 60 [13a 0 1 800] ------- [1:0 0:0 32 0] [5 0] 1 0
s 1.712852963 _0_ MAC  --- 0 ACK 38 [0 1 0 0] 
r 1.712867963 _0_ AGT  --- 28 ack 60 [13a 0 1 800] ------- [1:0 0:0 32 0] [5 0] 1 0
s 1.712867963 _0_ AGT  --- 30 tcp 1540 [0 0 0 0] ------- [0:0 1:0 32 0] [11 0] 0 0
r 1.712867963 _0_ RTR  --- 30 tcp 1540 [0 0 0 0] ------- [0:0 1:0 32 0] [11 0] 0 0
s 1.712867963 _0_ RTR  --- 30 tcp 1560 [0 0 0 0] ------- [0:0 1:0 32 1] [11 0] 0 0
s 1.712867963 _0_ AGT  --- 31 tcp 1540 [0 0 0 0] ------- [0:0 1:0 32 0] [12 0] 0 0
r 1.712867963 _0_ RTR  --- 31 tcp 1540 [0 0 0 0] ------- [0:0 1:0 32 0] [12 0] 0 0
s 1.712867963 _0_ RTR  --- 31 tcp 1560 [0 0 0 0] ------- [0:0 1:0 32 1] [12 0] 0 0
r 1.713157774 _1_ MAC  --- 0 ACK 38 [0 1 0 0] 
s 1.713277030 _2_ MAC  --- 15 message 102 [0 ffffffff 2 800] ------- [2:255 -1:255 32 0] 
r 1.714093840 _0_ MAC  --- 15 message 44 [0 ffffffff 2 800] ------- [2:255 -1:255 32 0] 
r 1.714118840 _0_ RTR  --- 15 message 44 [0 ffffffff 2 800] ------- [2:255 -1:255 32 0] 
s 1.714118840 _0_ RTR  --- 25 ack 80 [0 0 0 0] ------- [0:3 2:0 32 2] [0 0] 0 0
s 1.714483840 _0_ MAC  --- 0 RTS 44 [350e 1 0 0] 
r 1.714836651 _1_ MAC  --- 0 RTS 44 [350e 1 0 0] 
s 1.714846651 _1_ MAC  --- 0 CTS 38 [33d4 0 0 0] 
r 1.715151463 _0_ MAC  --- 0 CTS 38 [33d4 0 0 0] 
s 1.715161463 _0_ MAC  --- 23 tcp 1618 [13a 1 0 800] ------- [0:0 1:0 32 1] [7 0] 0 0
r 1.728106274 _1_ MAC  --- 23 tcp 1560 [13a 1 0 800] ------- [0:0 1:0 32 1] [7 0] 1 0
s 1.728116274 _1_ MAC  --- 0 ACK 38 [0 0 0 0] 
r 1.728131274 _1_ AGT  --- 23 tcp 1560 [13a 1 0 800] ------- [0:0 1:0 32 1] [7 0] 1 0
s 1.728131274 _1_ AGT  --- 32 ack 40 [0 0 0 0] ------- [1:0 0:0 32 0] [7 0] 0 0
r 1.728131274 _1_ RTR  --- 32 ack 40 [0 0 0 0] ------- [1:0 0:0 32 0] [7 0] 0 0
s 1.728131274 _1_ RTR  --- 32 ack 60 [0 0 0 0] ------- [1:0 0:0 32 0] [7 0] 0 0
r 1.728421086 _0_ MAC  --- 0 ACK 38 [0 0 0 0] 
s 1.728650274 _1_ MAC  --- 0 RTS 44 [62e 0 1 0] 
r 1.729003086 _0_ MAC  --- 0 RTS 44 [62e 0 1 0] 
s 1.729013086 _0_ MAC  --- 0 CTS 38 [4f4 1 0 0] 
r 1.729317897 _1_ MAC  --- 0 CTS 38 [4f4 1 0 0] 
s 1.729327897 _1_ MAC  --- 29 ack 118 [13a 0 1 800] ------- [1:0 0:0 32 0] [6 0] 0 0
r 1.730272709 _0_ MAC  --- 29 ack 60 [13a 0 1 800] ------- [1:0 0:0 32 0] [6 0] 1 0
s 1.730282709 _0_ MAC  --- 0 ACK 38 [0 1 0 0] 
r 1.730297709 _0_ AGT  --- 29 ack 60 [13a 0 1 800] ------- [1:0 0:0 32 0] [6 0] 1 0
s 1.730297709 _0_ AGT  --- 33 tcp 1540 [0 0 0 0] ------- [0:0 1:0 32 0] [13 0] 0 0
r 1.730297709 _0_ RTR  --- 33 tcp 1540 [0 0 0 0] ------- [0:0 1:0 32 0] [13 0] 0 0
s 1.730297709 _0_ RTR  --- 33 tcp 1560 [0 0 0 0] ------- [0:0 1:0 32 1] [13 0] 0 0
s 1.730297709 _0_ AGT  --- 34 tcp 1540 [0 0 0 0] ------- [0:0 1:0 32 0] [14 0] 0 0
r 1.730297709 _0_ RTR  --- 34 tcp 1540 [0 0 0 0] ------- [0:0 1:0 32 0] [14 0] 0 0
s 1.730297709 _0_ RTR  --- 34 tcp 1560 [0 0 0 0] ------- [0:0 1:0 32 1] [14 0] 0 0
r 1.730587520 _1_ MAC  --- 0 ACK 38 [0 1 0 0] 
s 1.730677520 _1_ MAC  --- 0 RTS 44 [62e 0 1 0] 
r 1.731030332 _0_ MAC  --- 0 RTS 44 [62e 0 1 0] 
s 1.731040332 _0_ MAC  --- 0 CTS 38 [4f4 1 0 0] 
r 1.731345143 _1_ MAC  --- 0 CTS 38 [4f4 1 0 0] 
s 1.731355143 _1_ MAC  --- 32 ack 118 [13a 0 1 800] ------- [1:0 0:0 32 0] [7 0] 0 0
r 1.732299955 _0_ MAC  --- 32 ack 60 [13a 0 1 800] ------- [1:0 0:0 32 0] [7 0] 1 0
s 1.732309955 _0_ MAC  --- 0 ACK 38 [0 1 0 0] 
r 1.732324955 _0_ AGT  --- 32 ack 60 [13a 0 1 800] ------- [1:0 0:0 32 0] [7 0] 1 0
s 1.732324955 _0_ AGT  --- 35 tcp 1540 [0 0 0 0] ------- [0:0 1:0 32 0] [15 0] 0 0
r 1.732324955 _0_ RTR  --- 35 tcp 1540 [0 0 0 0] ------- [0:0 1:0 32 0] [15 0] 0 0
s 1.732324955 _0_ RTR  --- 35 tcp 1560 [0 0 0 0] ------- [0:0 1:0 32 1] [15 0] 0 0
s 1.732324955 _0_ AGT  --- 36 tcp 1540 [0 0 0 0] ------- [0:0 1:0 32 0] [16 0] 0 0
r 1.732324955 _0_ RTR  --- 36 tcp 1540 [0 0 0 0] ------- [0:0 1:0 32 0] [16 0] 0 0
s 1.732324955 _0_ RTR  --- 36 tcp 1560 [0 0 0 0] ------- [0:0 1:0 32 1] [16 0] 0 0
r 1.732614767 _1_ MAC  --- 0 ACK 38 [0 1 0 0] 
s 1.732763955 _0_ MAC  --- 0 RTS 44 [350e 1 0 0] 
r 1.733116767 _1_ MAC  --- 0 RTS 44 [350e 1 0 0] 
s 1.733126767 _1_ MAC  --- 0 CTS 38 [33d4 0 0 0] 
r 1.733431578 _0_ MAC  --- 0 CTS 38 [33d4 0 0 0] 
s 1.733441578 _0_ MAC  --- 24 tcp 1618 [13a 1 0 800] ------- [0:0 1:0 32 1] [8 0] 0 0
r 1.746386390 _1_ MAC  --- 24 tcp 1560 [13a 1 0 800] ------- [0:0 1:0 32 1] [8 0] 1 0
s 1.746396390 _1_ MAC  --- 0 ACK 38 [0 0 0 0] 
r 1.746411390 _1_ AGT  --- 24 tcp 1560 [13a 1 0 800] ------- [0:0 1:0 32 1] [8 0] 1 0
s 1.746411390 _1_ AGT  --- 37 ack 40 [0 0 0 0] ------- [1:0 0:0 32 0] [8 0] 0 0
r 1.746411390 _1_ RTR  --- 37 ack 40 [0 0 0 0] ------- [1:0 0:0 32 0] [8 0] 0 0
s 1.746411390 _1_ RTR  --- 37 ack 60 [0 0 0 0] ------- [1:0 0:0 32 0] [8 0] 0 0
r 1.746701201 _0_ MAC  --- 0 ACK 38 [0 0 0 0] 
s 1.746871201 _0_ MAC  --- 0 RTS 44 [350e 1 0 0] 
r 1.747224013 _1_ MAC  --- 0 RTS 44 [350e 1 0 0] 
s 1.747234013 _1_ MAC  --- 0 CTS 38 [33d4 0 0 0] 
r 1.747538824 _0_ MAC  --- 0 CTS 38 [33d4 0 0 0] 
s 1.747548824 _0_ MAC  --- 26 tcp 1618 [13a 1 0 800] ------- [0:0 1:0 32 1] [9 0] 0 0
r 1.760493636 _1_ MAC  --- 26 tcp 1560 [13a 1 0 800] ------- [0:0 1:0 32 1] [9 0] 1 0
s 1.760503636 _1_ MAC  --- 0 ACK 38 [0 0 0 0] 
r 1.760518636 _1_ AGT  --- 26 tcp 1560 [13a 1 0 800] ------- [0:0 1:0 32 1] [9 0] 1 0
s 1.760518636 _1_ AGT  --- 38 ack 40 [0 0 0 0] ------- [1:0 0:0 32 0] [9 0] 0 0
r 1.760518636 _1_ RTR  --- 38 ack 40 [0 0 0 0] ------- [1:0 0:0 32 0] [9 0] 0 0
s 1.760518636 _1_ RTR  --- 38 ack 60 [0 0 0 0] ------- [1:0 0:0 32 0] [9 0] 0 0
r 1.760808447 _0_ MAC  --- 0 ACK 38 [0 0 0 0] 
s 1.761058447 _0_ MAC  --- 0 RTS 44 [350e 1 0 0] 
r 1.761411259 _1_ MAC  --- 0 RTS 44 [350e 1 0 0] 
s 1.761421259 _1_ MAC  --- 0 CTS 38 [33d4 0 0 0] 
r 1.761726070 _0_ MAC  --- 0 CTS 38 [33d4 0 0 0] 
s 1.761736070 _0_ MAC  --- 27 tcp 1618 [13a 1 0 800] ------- [0:0 1:0 32 1] [10 0] 0 0
r 1.774680882 _1_ MAC  --- 27 tcp 1560 [13a 1 0 800] ------- [0:0 1:0 32 1] [10 0] 1 0
s 1.774690882 _1_ MAC  --- 0 ACK 38 [0 0 0 0] 
r 1.774705882 _1_ AGT  --- 27 tcp 1560 [13a 1 0 800] ------- [0:0 1:0 32 1] [10 0] 1 0
s 1.774705882 _1_ AGT  --- 39 ack 40 [0 0 0 0] ------- [1:0 0:0 32 0] [10 0] 0 0
r 1.774705882 _1_ RTR  --- 39 ack 40 [0 0 0 0] ------- [1:0 0:0 32 0] [10 0] 0 0
s 1.774705882 _1_ RTR  --- 39 ack 60 [0 0 0 0] ------- [1:0 0:0 32 0] [10 0] 0 0
r 1.774995693 _0_ MAC  --- 0 ACK 38 [0 0 0 0] 
s 1.775104882 _1_ MAC  --- 0 RTS 44 [62e 0 1 0] 
r 1.775457693 _0_ MAC  --- 0 RTS 44 [62e 0 1 0] 
s 1.775467693 _0_ MAC  --- 0 CTS 38 [4f4 1 0 0] 
r 1.775772505 _1_ MAC  --- 0 CTS 38 [4f4 1 0 0] 
s 1.775782505 _1_ MAC  --- 37 ack 118 [13a 0 1 800] ------- [1:0 0:0 32 0] [8 0] 0 0
r 1.776727317 _0_ MAC  --- 37 ack 60 [13a 0 1 800] ------- [1:0 0:0 32 0] [8 0] 1 0
s 1.776737317 _0_ MAC  --- 0 ACK 38 [0 1 0 0] 
r 1.776752317 _0_ AGT  --- 37 ack 60 [13a 0 1 800] ------- [1:0 0:0 32 0] [8 0] 1 0
s 1.776752317 _0_ AGT  --- 40 tcp 1540 [0 0 0 0] ------- [0:0 1:0 32 0] [17 0] 0 0
r 1.776752317 _0_ RTR  --- 40 tcp 1540 [0 0 0 0] ------- [0:0 1:0 32 0] [17 0] 0 0
s 1.776752317 _0_ RTR  --- 40 tcp 1560 [0 0 0 0] ------- [0:0 1:0 32 1] [17 0] 0 0
s 1.776752317 _0_ AGT  --- 41 tcp 1540 [0 0 0 0] ------- [0:0 1:0 32 0] [18 0] 0 0
r 1.776752317 _0_ RTR  --- 41 tcp 1540 [0 0 0 0] ------- [0:0 1:0 32 0] [18 0] 0 0
s 1.776752317 _0_ RTR  --- 41 tcp 1560 [0 0 0 0] ------- [0:0 1:0 32 1] [18 0] 0 0
r 1.777042128 _1_ MAC  --- 0 ACK 38 [0 1 0 0] 
s 1.777151317 _0_ MAC  --- 0 RTS 44 [62e 3 0 0] 
r 1.777504123 _3_ MAC  --- 0 RTS 44 [62e 3 0 0] 
s 1.777514123 _3_ MAC  --- 0 CTS 38 [4f4 0 0 0] 
r 1.777818930 _0_ MAC  --- 0 CTS 38 [4f4 0 0 0] 
s 1.777828930 _0_ MAC  --- 11 ack 118 [13a 3 0 800] ------- [0:2 3:0 32 3] [0 0] 0 0
r 1.778773736 _3_ MAC  --- 11 ack 60 [13a 3 0 800] ------- [0:2 3:0 32 3] [0 0] 1 0
s 1.778783736 _3_ MAC  --- 0 ACK 38 [0 0 0 0] 
r 1.778798736 _3_ AGT  --- 11 ack 60 [13a 3 0 800] ------- [0:2 3:0 32 3] [0 0] 1 0
s 1.778798736 _3_ AGT  --- 42 tcp 1540 [0 0 0 0] ------- [3:0 0:2 32 0] [1 0] 0 0
r 1.778798736 _3_ RTR  --- 42 tcp 1540 [0 0 0 0] ------- [3:0 0:2 32 0] [1 0] 0 0
s 1.778798736 _3_ RTR  --- 42 tcp 1560 [0 0 0 0] ------- [3:0 0:2 32 0] [1 0] 0 0
s 1.778798736 _3_ AGT  --- 43 tcp 1540 [0 0 0 0] ------- [3:0 0:2 32 0] [2 0] 0 0
r 1.778798736 _3_ RTR  --- 43 tcp 1540 [0 0 0 0] ------- [3:0 0:2 32 0] [2 0] 0 0
s 1.778798736 _3_ RTR  --- 43 tcp 1560 [0 0 0 0] ------- [3:0 0:2 32 0] [2 0] 0 0
r 1.779088542 _0_ MAC  --- 0 ACK 38 [0 0 0 0] 
s 1.779257736 _3_ MAC  --- 0 RTS 44 [350e 0 3 0] 
r 1.779610542 _0_ MAC  --- 0 RTS 44 [350e 0 3 0] 
s 1.779620542 _0_ MAC  --- 0 CTS 38 [33d4 3 0 0] 
r 1.779925349 _3_ MAC  --- 0 CTS 38 [33d4 3 0 0] 
s 1.779935349 _3_ MAC  --- 42 tcp 1618 [13a 0 3 800] ------- [3:0 0:2 32 0] [1 0] 0 0
r 1.792880155 _0_ MAC  --- 42 tcp 1560 [13a 0 3 800] ------- [3:0 0:2 32 0] [1 0] 1 0
s 1.792890155 _0_ MAC  --- 0 ACK 38 [0 3 0 0] 
r 1.792905155 _0_ AGT  --- 42 tcp 1560 [13a 0 3 800] ------- [3:0 0:2 32 0] [1 0] 1 0
s 1.792905155 _0_ AGT  --- 44 ack 40 [0 0 0 0] ------- [0:2 3:0 32 0] [1 0] 0 0
r 1.792905155 _0_ RTR  --- 44 ack 40 [0 0 0 0] ------- [0:2 3:0 32 0] [1 0] 0 0
s 1.792905155 _0_ RTR  --- 44 ack 60 [0 0 0 0] ------- [0:2 3:0 32 3] [1 0] 0 0
r 1.793194962 _3_ MAC  --- 0 ACK 38 [0 3 0 0] 
s 1.793314216 _4_ MAC  --- 0 RTS 44 [6ce 0 4 0] 
r 1.793666989 _0_ MAC  --- 0 RTS 44 [6ce 0 4 0] 
s 1.793676989 _0_ MAC  --- 0 CTS 38 [594 4 0 0] 
r 1.793981763 _4_ MAC  --- 0 CTS 38 [594 4 0 0] 
s 1.793991763 _4_ MAC  --- 5 tcp 138 [13a 0 4 800] ------- [4:0 0:1 32 0] [0 0] 0 0
r 1.795096536 _0_ MAC  --- 5 tcp 80 [13a 0 4 800] ------- [4:0 0:1 32 0] [0 0] 1 0
s 1.795106536 _0_ MAC  --- 0 ACK 38 [0 4 0 0] 
r 1.795121536 _0_ AGT  --- 5 tcp 80 [13a 0 4 800] ------- [4:0 0:1 32 0] [0 0] 1 0
s 1.795121536 _0_ AGT  --- 45 ack 40 [0 0 0 0] ------- [0:1 4:0 32 0] [0 0] 0 0
r 1.795121536 _0_ RTR  --- 45 ack 40 [0 0 0 0] ------- [0:1 4:0 32 0] [0 0] 0 0
s 1.795121536 _0_ RTR  --- 45 ack 60 [0 0 0 0] ------- [0:1 4:0 32 4] [0 0] 0 0
r 1.795411309 _4_ MAC  --- 0 ACK 38 [0 4 0 0] 
s 1.795531221 _1_ MAC  --- 0 RTS 44 [62e 0 1 0] 
r 1.795884032 _0_ MAC  --- 0 RTS 44 [62e 0 1 0] 
s 1.795894032 _0_ MAC  --- 0 CTS 38 [4f4 1 0 0] 
r 1.796198844 _1_ MAC  --- 0 CTS 38 [4f4 1 0 0] 
s 1.796208844 _1_ MAC  --- 38 ack 118 [13a 0 1 800] ------- [1:0 0:0 32 0] [9 0] 0 0
r 1.797153655 _0_ MAC  --- 38 ack 60 [13a 0 1 800] ------- [1:0 0:0 32 0] [9 0] 1 0
s 1.797163655 _0_ MAC  --- 0 ACK 38 [0 1 0 0] 
r 1.797178655 _0_ AGT  --- 38 ack 60 [13a 0 1 800] ------- [1:0 0:0 32 0] [9 0] 1 0
s 1.797178655 _0_ AGT  --- 46 tcp 1540 [0 0 0 0] ------- [0:0 1:0 32 0] [19 0] 0 0
r 1.797178655 _0_ RTR  --- 46 tcp 1540 [0 0 0 0] ------- [0:0 1:0 32 0] [19 0] 0 0
s 1.797178655 _0_ RTR  --- 46 tcp 1560 [0 0 0 0] ------- [0:0 1:0 32 1] [19 0] 0 0
s 1.797178655 _0_ AGT  --- 47 tcp 1540 [0 0 0 0] ------- [0:0 1:0 32 0] [20 0] 0 0
r 1.797178655 _0_ RTR  --- 47 tcp 1540 [0 0 0 0] ------- [0:0 1:0 32 0] [20 0] 0 0
s 1.797178655 _0_ RTR  --- 47 tcp 1560 [0 0 0 0] ------- [0:0 1:0 32 1] [20 0] 0 0
r 1.797468467 _1_ MAC  --- 0 ACK 38 [0 1 0 0] 
s 1.797557655 _0_ MAC  --- 0 RTS 44 [350e 1 0 0] 
r 1.797910467 _1_ MAC  --- 0 RTS 44 [350e 1 0 0] 
s 1.797920467 _1_ MAC  --- 0 CTS 38 [33d4 0 0 0] 
r 1.798225278 _0_ MAC  --- 0 CTS 38 [33d4 0 0 0] 
s 1.798235278 _0_ MAC  --- 30 tcp 1618 [13a 1 0 800] ------- [0:0 1:0 32 1] [11 0] 0 0
r 1.811180090 _1_ MAC  --- 30 tcp 1560 [13a 1 0 800] ------- [0:0 1:0 32 1] [11 0] 1 0
s 1.811190090 _1_ MAC  --- 0 ACK 38 [0 0 0 0] 
r 1.811205090 _1_ AGT  --- 30 tcp 1560 [13a 1 0 800] ------- [0:0 1:0 32 1] [11 0] 1 0
s 1.811205090 _1_ AGT  --- 48 ack 40 [0 0 0 0] ------- [1:0 0:0 32 0] [11 0] 0 0