n -t * -s 0  -x 540 -y 468 -Z 0 -z 20  -v circle -c black
n -t * -s 1  -x 783 -y 453 -Z 0 -z 20  -v circle -c black
n -t * -s 2  -x 626 -y 241 -Z 0 -z 20  -v circle -c black
n -t * -s 3  -x 647 -y 685 -Z 0 -z 20  -v circle -c black
n -t * -s 4  -x 390 -y 645 -Z 0 -z 20  -v circle -c black
n -t * -s 5  -x 335 -y 336 -Z 0 -z 20  -v circle -c black
V -t * -v 1.0a5 -a 0
W -t * -x 883 -y 785
A -t * -n 1 -p 0 -o 0x7fffffff -c 30 -a 1
A -t * -h 1 -m 1073741823 -s 0
+ -t 0.477566739 -s 3 -d -1 -p message -e 32 -c 2 -a 0 -i 0 -k RTR 
- -t 0.477566739 -s 3 -d -1 -p message -e 32 -c 2 -a 0 -i 0 -k RTR
h -t 0.477566739 -s 3 -d -1 -p message -e 32 -c 2 -a 0 -i 0 -k RTR
+ -t 0.478181739 -s 3 -d -1 -p message -e 90 -c 2 -a 0 -i 0 -k MAC 
- -t 0.478181739 -s 3 -d -1 -p message -e 90 -c 2 -a 0 -i 0 -k MAC
h -t 0.478181739 -s 3 -d -1 -p message -e 90 -c 2 -a 0 -i 0 -k MAC
r -t 0.478902546 -s 0 -d -1 -p message -e 32 -c 2 -a 0 -i 0 -k MAC
r -t 0.478927546 -s 0 -d -1 -p message -e 32 -c 2 -a 0 -i 0 -k RTR
+ -t 0.619296198 -s 5 -d -1 -p message -e 32 -c 2 -a 0 -i 1 -k RTR 
- -t 0.619296198 -s 5 -d -1 -p message -e 32 -c 2 -a 0 -i 1 -k RTR
h -t 0.619296198 -s 5 -d -1 -p message -e 32 -c 2 -a 0 -i 1 -k RTR
+ -t 0.619531198 -s 5 -d -1 -p message -e 90 -c 2 -a 0 -i 1 -k MAC 
- -t 0.619531198 -s 5 -d -1 -p message -e 90 -c 2 -a 0 -i 1 -k MAC
h -t 0.619531198 -s 5 -d -1 -p message -e 90 -c 2 -a 0 -i 1 -k MAC
r -t 0.620252011 -s 0 -d -1 -p message -e 32 -c 2 -a 0 -i 1 -k MAC
r -t 0.620277011 -s 0 -d -1 -p message -e 32 -c 2 -a 0 -i 1 -k RTR
+ -t 0.626864932 -s 1 -d -1 -p message -e 32 -c 2 -a 0 -i 2 -k RTR 
- -t 0.626864932 -s 1 -d -1 -p message -e 32 -c 2 -a 0 -i 2 -k RTR
h -t 0.626864932 -s 1 -d -1 -p message -e 32 -c 2 -a 0 -i 2 -k RTR
+ -t 0.627139932 -s 1 -d -1 -p message -e 90 -c 2 -a 0 -i 2 -k MAC 
- -t 0.627139932 -s 1 -d -1 -p message -e 90 -c 2 -a 0 -i 2 -k MAC
h -t 0.627139932 -s 1 -d -1 -p message -e 90 -c 2 -a 0 -i 2 -k MAC
r -t 0.627860743 -s 0 -d -1 -p message -e 32 -c 2 -a 0 -i 2 -k MAC
r -t 0.627885743 -s 0 -d -1 -p message -e 32 -c 2 -a 0 -i 2 -k RTR
+ -t 1.000000000 -s 0 -d -1 -p tcp -e 40 -c 2 -a 0 -i 3 -k AGT 
- -t 1.000000000 -s 0 -d -1 -p tcp -e 40 -c 2 -a 0 -i 3 -k AGT
h -t 1.000000000 -s 0 -d -1 -p tcp -e 40 -c 2 -a 0 -i 3 -k AGT
+ -t 1.000000000 -s 0 -d 1 -p tcp -e 60 -c 2 -a 0 -i 3 -k RTR 
- -t 1.000000000 -s 0 -d 1 -p tcp -e 60 -c 2 -a 0 -i 3 -k RTR
h -t 1.000000000 -s 0 -d 1 -p tcp -e 60 -c 2 -a 0 -i 3 -k RTR
+ -t 1.000000000 -s 5 -d -1 -p tcp -e 40 -c 2 -a 0 -i 4 -k AGT 
- -t 1.000000000 -s 5 -d -1 -p tcp -e 40 -c 2 -a 0 -i 4 -k AGT
h -t 1.000000000 -s 5 -d -1 -p tcp -e 40 -c 2 -a 0 -i 4 -k AGT
+ -t 1.000000000 -s 4 -d -1 -p tcp -e 40 -c 2 -a 0 -i 5 -k AGT 
- -t 1.000000000 -s 4 -d -1 -p tcp -e 40 -c 2 -a 0 -i 5 -k AGT
h -t 1.000000000 -s 4 -d -1 -p tcp -e 40 -c 2 -a 0 -i 5 -k AGT
+ -t 1.000000000 -s 3 -d -1 -p tcp -e 40 -c 2 -a 0 -i 6 -k AGT 
- -t 1.000000000 -s 3 -d -1 -p tcp -e 40 -c 2 -a 0 -i 6 -k AGT
h -t 1.000000000 -s 3 -d -1 -p tcp -e 40 -c 2 -a 0 -i 6 -k AGT
+ -t 1.000000000 -s 2 -d -1 -p tcp -e 40 -c 2 -a 0 -i 7 -k AGT 
- -t 1.000000000 -s 2 -d -1 -p tcp -e 40 -c 2 -a 0 -i 7 -k AGT
h -t 1.000000000 -s 2 -d -1 -p tcp -e 40 -c 2 -a 0 -i 7 -k AGT
+ -t 1.000075000 -s 0 -d -1 -p ARP -e 86 -c 2 -a 0 -i 0 -k MAC 
- -t 1.000075000 -s 0 -d -1 -p ARP -e 86 -c 2 -a 0 -i 0 -k MAC
h -t 1.000075000 -s 0 -d -1 -p ARP -e 86 -c 2 -a 0 -i 0 -k MAC
r -t 1.000763773 -s 4 -d -1 -p ARP -e 28 -c 2 -a 0 -i 0 -k MAC
r -t 1.000763806 -s 3 -d -1 -p ARP -e 28 -c 2 -a 0 -i 0 -k MAC
r -t 1.000763809 -s 2 -d -1 -p ARP -e 28 -c 2 -a 0 -i 0 -k MAC
r -t 1.000763812 -s 1 -d -1 -p ARP -e 28 -c 2 -a 0 -i 0 -k MAC
r -t 1.000763813 -s 5 -d -1 -p ARP -e 28 -c 2 -a 0 -i 0 -k MAC
+ -t 1.001258812 -s 1 -d -1 -p RTS -e 44 -c 2 -a 0 -i 0 -k MAC 
- -t 1.001258812 -s 1 -d -1 -p RTS -e 44 -c 2 -a 0 -i 0 -k MAC
h -t 1.001258812 -s 1 -d -1 -p RTS -e 44 -c 2 -a 0 -i 0 -k MAC
r -t 1.001611623 -s 0 -d -1 -p RTS -e 44 -c 2 -a 0 -i 0 -k MAC
+ -t 1.001621623 -s 0 -d -1 -p CTS -e 38 -c 2 -a 0 -i 0 -k MAC 
- -t 1.001621623 -s 0 -d -1 -p CTS -e 38 -c 2 -a 0 -i 0 -k MAC
h -t 1.001621623 -s 0 -d -1 -p CTS -e 38 -c 2 -a 0 -i 0 -k MAC
r -t 1.001926435 -s 1 -d -1 -p CTS -e 38 -c 2 -a 0 -i 0 -k MAC
+ -t 1.001936435 -s 1 -d -1 -p ARP -e 86 -c 2 -a 0 -i 0 -k MAC 
- -t 1.001936435 -s 1 -d -1 -p ARP -e 86 -c 2 -a 0 -i 0 -k MAC
h -t 1.001936435 -s 1 -d -1 -p ARP -e 86 -c 2 -a 0 -i 0 -k MAC
r -t 1.002625246 -s 0 -d -1 -p ARP -e 28 -c 2 -a 0 -i 0 -k MAC
+ -t 1.002635246 -s 0 -d -1 -p ACK -e 38 -c 2 -a 0 -i 0 -k MAC 
- -t 1.002635246 -s 0 -d -1 -p ACK -e 38 -c 2 -a 0 -i 0 -k MAC
h -t 1.002635246 -s 0 -d -1 -p ACK -e 38 -c 2 -a 0 -i 0 -k MAC
r -t 1.002940058 -s 1 -d -1 -p ACK -e 38 -c 2 -a 0 -i 0 -k MAC
+ -t 1.003169246 -s 0 -d -1 -p RTS -e 44 -c 2 -a 0 -i 0 -k MAC 
- -t 1.003169246 -s 0 -d -1 -p RTS -e 44 -c 2 -a 0 -i 0 -k MAC
h -t 1.003169246 -s 0 -d -1 -p RTS -e 44 -c 2 -a 0 -i 0 -k MAC
r -t 1.003522058 -s 1 -d -1 -p RTS -e 44 -c 2 -a 0 -i 0 -k MAC
+ -t 1.003532058 -s 1 -d -1 -p CTS -e 38 -c 2 -a 0 -i 0 -k MAC 
- -t 1.003532058 -s 1 -d -1 -p CTS -e 38 -c 2 -a 0 -i 0 -k MAC
h -t 1.003532058 -s 1 -d -1 -p CTS -e 38 -c 2 -a 0 -i 0 -k MAC
r -t 1.003836869 -s 0 -d -1 -p CTS -e 38 -c 2 -a 0 -i 0 -k MAC
+ -t 1.003846869 -s 0 -d 1 -p tcp -e 118 -c 2 -a 0 -i 3 -k MAC 
- -t 1.003846869 -s 0 -d 1 -p tcp -e 118 -c 2 -a 0 -i 3 -k MAC
h -t 1.003846869 -s 0 -d 1 -p tcp -e 118 -c 2 -a 0 -i 3 -k MAC
r -t 1.004791681 -s 1 -d 1 -p tcp -e 60 -c 2 -a 0 -i 3 -k MAC
+ -t 1.004801681 -s 1 -d -1 -p ACK -e 38 -c 2 -a 0 -i 0 -k MAC 
- -t 1.004801681 -s 1 -d -1 -p ACK -e 38 -c 2 -a 0 -i 0 -k MAC
h -t 1.004801681 -s 1 -d -1 -p ACK -e 38 -c 2 -a 0 -i 0 -k MAC
r -t 1.004816681 -s 1 -d 1 -p tcp -e 60 -c 2 -a 0 -i 3 -k AGT
+ -t 1.004816681 -s 1 -d -1 -p ack -e 40 -c 2 -a 0 -i 8 -k AGT 
- -t 1.004816681 -s 1 -d -1 -p ack -e 40 -c 2 -a 0 -i 8 -k AGT
h -t 1.004816681 -s 1 -d -1 -p ack -e 40 -c 2 -a 0 -i 8 -k AGT
r -t 1.005106492 -s 0 -d -1 -p ACK -e 38 -c 2 -a 0 -i 0 -k MAC
+ -t 1.279901881 -s 4 -d -1 -p message -e 32 -c 2 -a 0 -i 9 -k RTR 
- -t 1.279901881 -s 4 -d -1 -p message -e 32 -c 2 -a 0 -i 9 -k RTR
h -t 1.279901881 -s 4 -d -1 -p message -e 32 -c 2 -a 0 -i 9 -k RTR
+ -t 1.280016881 -s 4 -d -1 -p message -e 90 -c 2 -a 0 -i 9 -k MAC 
- -t 1.280016881 -s 4 -d -1 -p message -e 90 -c 2 -a 0 -i 9 -k MAC
h -t 1.280016881 -s 4 -d -1 -p message -e 90 -c 2 -a 0 -i 9 -k MAC
r -t 1.280737654 -s 0 -d -1 -p message -e 32 -c 2 -a 0 -i 9 -k MAC
r -t 1.280762654 -s 0 -d -1 -p message -e 32 -c 2 -a 0 -i 9 -k RTR
+ -t 1.605933226 -s 0 -d -1 -p message -e 32 -c 2 -a 0 -i 10 -k RTR 
- -t 1.605933226 -s 0 -d -1 -p message -e 32 -c 2 -a 0 -i 10 -k RTR
h -t 1.605933226 -s 0 -d -1 -p message -e 32 -c 2 -a 0 -i 10 -k RTR
+ -t 1.606088226 -s 0 -d -1 -p message -e 90 -c 2 -a 0 -i 10 -k MAC 
- -t 1.606088226 -s 0 -d -1 -p message -e 90 -c 2 -a 0 -i 10 -k MAC
h -t 1.606088226 -s 0 -d -1 -p message -e 90 -c 2 -a 0 -i 10 -k MAC
r -t 1.606808999 -s 4 -d -1 -p message -e 32 -c 2 -a 0 -i 10 -k MAC
r -t 1.606809032 -s 3 -d -1 -p message -e 32 -c 2 -a 0 -i 10 -k MAC
r -t 1.606809035 -s 2 -d -1 -p message -e 32 -c 2 -a 0 -i 10 -k MAC
r -t 1.606809037 -s 1 -d -1 -p message -e 32 -c 2 -a 0 -i 10 -k MAC
r -t 1.606809039 -s 5 -d -1 -p message -e 32 -c 2 -a 0 -i 10 -k MAC
r -t 1.606833999 -s 4 -d -1 -p message -e 32 -c 2 -a 0 -i 10 -k RTR
+ -t 1.606833999 -s 4 -d 0 -p tcp -e 80 -c 2 -a 0 -i 5 -k RTR 
- -t 1.606833999 -s 4 -d 0 -p tcp -e 80 -c 2 -a 0 -i 5 -k RTR
h -t 1.606833999 -s 4 -d 0 -p tcp -e 80 -c 2 -a 0 -i 5 -k RTR
r -t 1.606834032 -s 3 -d -1 -p message -e 32 -c 2 -a 0 -i 10 -k RTR
+ -t 1.606834032 -s 3 -d 0 -p tcp -e 80 -c 2 -a 0 -i 6 -k RTR 
- -t 1.606834032 -s 3 -d 0 -p tcp -e 80 -c 2 -a 0 -i 6 -k RTR
h -t 1.606834032 -s 3 -d 0 -p tcp -e 80 -c 2 -a 0 -i 6 -k RTR
r -t 1.606834035 -s 2 -d -1 -p message -e 32 -c 2 -a 0 -i 10 -k RTR
+ -t 1.606834035 -s 2 -d 0 -p tcp -e 80 -c 2 -a 0 -i 7 -k RTR 
- -t 1.606834035 -s 2 -d 0 -p tcp -e 80 -c 2 -a 0 -i 7 -k RTR
h -t 1.606834035 -s 2 -d 0 -p tcp -e 80 -c 2 -a 0 -i 7 -k RTR
r -t 1.606834037 -s 1 -d -1 -p message -e 32 -c 2 -a 0 -i 10 -k RTR
+ -t 1.606834037 -s 1 -d 0 -p ack -e 80 -c 2 -a 0 -i 8 -k RTR 
- -t 1.606834037 -s 1 -d 0 -p ack -e 80 -c 2 -a 0 -i 8 -k RTR
h -t 1.606834037 -s 1 -d 0 -p ack -e 80 -c 2 -a 0 -i 8 -k RTR
r -t 1.606834039 -s 5 -d -1 -p message -e 32 -c 2 -a 0 -i 10 -k RTR
+ -t 1.606834039 -s 5 -d 0 -p tcp -e 80 -c 2 -a 0 -i 4 -k RTR 
- -t 1.606834039 -s 5 -d 0 -p tcp -e 80 -c 2 -a 0 -i 4 -k RTR
h -t 1.606834039 -s 5 -d 0 -p tcp -e 80 -c 2 -a 0 -i 4 -k RTR
+ -t 1.607009032 -s 3 -d -1 -p RTS -e 44 -c 2 -a 0 -i 0 -k MAC 
- -t 1.607009032 -s 3 -d -1 -p RTS -e 44 -c 2 -a 0 -i 0 -k MAC
h -t 1.607009032 -s 3 -d -1 -p RTS -e 44 -c 2 -a 0 -i 0 -k MAC
r -t 1.607361839 -s 0 -d -1 -p RTS -e 44 -c 2 -a 0 -i 0 -k MAC
+ -t 1.607371839 -s 0 -d -1 -p CTS -e 38 -c 2 -a 0 -i 0 -k MAC 
- -t 1.607371839 -s 0 -d -1 -p CTS -e 38 -c 2 -a 0 -i 0 -k MAC
h -t 1.607371839 -s 0 -d -1 -p CTS -e 38 -c 2 -a 0 -i 0 -k MAC
r -t 1.607676645 -s 3 -d -1 -p CTS -e 38 -c 2 -a 0 -i 0 -k MAC
+ -t 1.607686645 -s 3 -d 0 -p tcp -e 138 -c 2 -a 0 -i 6 -k MAC 
- -t 1.607686645 -s 3 -d 0 -p tcp -e 138 -c 2 -a 0 -i 6 -k MAC
h -t 1.607686645 -s 3 -d 0 -p tcp -e 138 -c 2 -a 0 -i 6 -k MAC
r -t 1.608791452 -s 0 -d 0 -p tcp -e 80 -c 2 -a 0 -i 6 -k MAC
+ -t 1.608801452 -s 0 -d -1 -p ACK -e 38 -c 2 -a 0 -i 0 -k MAC 
- -t 1.608801452 -s 0 -d -1 -p ACK -e 38 -c 2 -a 0 -i 0 -k MAC
h -t 1.608801452 -s 0 -d -1 -p ACK -e 38 -c 2 -a 0 -i 0 -k MAC
r -t 1.608816452 -s 0 -d 0 -p tcp -e 80 -c 2 -a 0 -i 6 -k AGT
+ -t 1.608816452 -s 0 -d -1 -p ack -e 40 -c 2 -a 0 -i 11 -k AGT 
- -t 1.608816452 -s 0 -d -1 -p ack -e 40 -c 2 -a 0 -i 11 -k AGT
h -t 1.608816452 -s 0 -d -1 -p ack -e 40 -c 2 -a 0 -i 11 -k AGT
+ -t 1.608816452 -s 0 -d 3 -p ack -e 60 -c 2 -a 0 -i 11 -k RTR 
- -t 1.608816452 -s 0 -d 3 -p ack -e 60 -c 2 -a 0 -i 11 -k RTR
h -t 1.608816452 -s 0 -d 3 -p ack -e 60 -c 2 -a 0 -i 11 -k RTR
r -t 1.609106258 -s 3 -d -1 -p ACK -e 38 -c 2 -a 0 -i 0 -k MAC
+ -t 1.609295452 -s 0 -d -1 -p ARP -e 86 -c 2 -a 0 -i 0 -k MAC 
- -t 1.609295452 -s 0 -d -1 -p ARP -e 86 -c 2 -a 0 -i 0 -k MAC
h -t 1.609295452 -s 0 -d -1 -p ARP -e 86 -c 2 -a 0 -i 0 -k MAC
r -t 1.609984225 -s 4 -d -1 -p ARP -e 28 -c 2 -a 0 -i 0 -k MAC
r -t 1.609984258 -s 3 -d -1 -p ARP -e 28 -c 2 -a 0 -i 0 -k MAC
r -t 1.609984261 -s 2 -d -1 -p ARP -e 28 -c 2 -a 0 -i 0 -k MAC
r -t 1.609984263 -s 1 -d -1 -p ARP -e 28 -c 2 -a 0 -i 0 -k MAC
r -t 1.609984265 -s 5 -d -1 -p ARP -e 28 -c 2 -a 0 -i 0 -k MAC
+ -t 1.610054225 -s 4 -d -1 -p RTS -e 44 -c 2 -a 0 -i 0 -k MAC 
- -t 1.610054225 -s 4 -d -1 -p RTS -e 44 -c 2 -a 0 -i 0 -k MAC
h -t 1.610054225 -s 4 -d -1 -p RTS -e 44 -c 2 -a 0 -i 0 -k MAC
+ -t 1.610054265 -s 5 -d -1 -p RTS -e 44 -c 2 -a 0 -i 0 -k MAC 
- -t 1.610054265 -s 5 -d -1 -p RTS -e 44 -c 2 -a 0 -i 0 -k MAC
h -t 1.610054265 -s 5 -d -1 -p RTS -e 44 -c 2 -a 0 -i 0 -k MAC
d -t 1.610055077 -s 0 -d -1 -p RTS -e 44 -c 2 -a 0 -i 0 -k MAC
d -t 1.610407077 -s 0 -d -1 -p RTS -e 44 -c 2 -a 0 -i 0 -k MAC
+ -t 1.610841808 -s 1 -d -1 -p RTS -e 44 -c 2 -a 0 -i 0 -k MAC 
- -t 1.610841808 -s 1 -d -1 -p RTS -e 44 -c 2 -a 0 -i 0 -k MAC
h -t 1.610841808 -s 1 -d -1 -p RTS -e 44 -c 2 -a 0 -i 0 -k MAC
r -t 1.611194620 -s 0 -d -1 -p RTS -e 44 -c 2 -a 0 -i 0 -k MAC
+ -t 1.611204620 -s 0 -d -1 -p CTS -e 38 -c 2 -a 0 -i 0 -k MAC 
- -t 1.611204620 -s 0 -d -1 -p CTS -e 38 -c 2 -a 0 -i 0 -k MAC
h -t 1.611204620 -s 0 -d -1 -p CTS -e 38 -c 2 -a 0 -i 0 -k MAC
r -t 1.611509431 -s 1 -d -1 -p CTS -e 38 -c 2 -a 0 -i 0 -k MAC
+ -t 1.611519431 -s 1 -d 0 -p ack -e 138 -c 2 -a 0 -i 8 -k MAC 
- -t 1.611519431 -s 1 -d 0 -p ack -e 138 -c 2 -a 0 -i 8 -k MAC
h -t 1.611519431 -s 1 -d 0 -p ack -e 138 -c 2 -a 0 -i 8 -k MAC
r -t 1.612624243 -s 0 -d 0 -p ack -e 80 -c 2 -a 0 -i 8 -k MAC
+ -t 1.612634243 -s 0 -d -1 -p ACK -e 38 -c 2 -a 0 -i 0 -k MAC 
- -t 1.612634243 -s 0 -d -1 -p ACK -e 38 -c 2 -a 0 -i 0 -k MAC
h -t 1.612634243 -s 0 -d -1 -p ACK -e 38 -c 2 -a 0 -i 0 -k MAC
r -t 1.612649243 -s 0 -d 0 -p ack -e 80 -c 2 -a 0 -i 8 -k AGT
+ -t 1.612649243 -s 0 -d -1 -p tcp -e 1540 -c 2 -a 0 -i 12 -k AGT 
- -t 1.612649243 -s 0 -d -1 -p tcp -e 1540 -c 2 -a 0 -i 12 -k AGT
h -t 1.612649243 -s 0 -d -1 -p tcp -e 1540 -c 2 -a 0 -i 12 -k AGT
+ -t 1.612649243 -s 0 -d 1 -p tcp -e 1560 -c 2 -a 0 -i 12 -k RTR 
- -t 1.612649243 -s 0 -d 1 -p tcp -e 1560 -c 2 -a 0 -i 12 -k RTR
h -t 1.612649243 -s 0 -d 1 -p tcp -e 1560 -c 2 -a 0 -i 12 -k RTR
+ -t 1.612649243 -s 0 -d -1 -p tcp -e 1540 -c 2 -a 0 -i 13 -k AGT 
- -t 1.612649243 -s 0 -d -1 -p tcp -e 1540 -c 2 -a 0 -i 13 -k AGT
h -t 1.612649243 -s 0 -d -1 -p tcp -e 1540 -c 2 -a 0 -i 13 -k AGT
+ -t 1.612649243 -s 0 -d 1 -p tcp -e 1560 -c 2 -a 0 -i 13 -k RTR 
- -t 1.612649243 -s 0 -d 1 -p tcp -e 1560 -c 2 -a 0 -i 13 -k RTR
h -t 1.612649243 -s 0 -d 1 -p tcp -e 1560 -c 2 -a 0 -i 13 -k RTR
r -t 1.612939054 -s 1 -d -1 -p ACK -e 38 -c 2 -a 0 -i 0 -k MAC
+ -t 1.613008243 -s 0 -d -1 -p RTS -e 44 -c 2 -a 0 -i 0 -k MAC 
- -t 1.613008243 -s 0 -d -1 -p RTS -e 44 -c 2 -a 0 -i 0 -k MAC
h -t 1.613008243 -s 0 -d -1 -p RTS -e 44 -c 2 -a 0 -i 0 -k MAC
r -t 1.613361054 -s 1 -d -1 -p RTS -e 44 -c 2 -a 0 -i 0 -k MAC
+ -t 1.613371054 -s 1 -d -1 -p CTS -e 38 -c 2 -a 0 -i 0 -k MAC 
- -t 1.613371054 -s 1 -d -1 -p CTS -e 38 -c 2 -a 0 -i 0 -k MAC
h -t 1.613371054 -s 1 -d -1 -p CTS -e 38 -c 2 -a 0 -i 0 -k MAC
r -t 1.613675866 -s 0 -d -1 -p CTS -e 38 -c 2 -a 0 -i 0 -k MAC
+ -t 1.613685866 -s 0 -d 1 -p tcp -e 1618 -c 2 -a 0 -i 12 -k MAC 
- -t 1.613685866 -s 0 -d 1 -p tcp -e 1618 -c 2 -a 0 -i 12 -k MAC
h -t 1.613685866 -s 0 -d 1 -p tcp -e 1618 -c 2 -a 0 -i 12 -k MAC
r -t 1.626630677 -s 1 -d 1 -p tcp -e 1560 -c 2 -a 0 -i 12 -k MAC
+ -t 1.626640677 -s 1 -d -1 -p ACK -e 38 -c 2 -a 0 -i 0 -k MAC 
- -t 1.626640677 -s 1 -d -1 -p ACK -e 38 -c 2 -a 0 -i 0 -k MAC
h -t 1.626640677 -s 1 -d -1 -p ACK -e 38 -c 2 -a 0 -i 0 -k MAC
r -t 1.626655677 -s 1 -d 1 -p tcp -e 1560 -c 2 -a 0 -i 12 -k AGT
+ -t 1.626655677 -s 1 -d -1 -p ack -e 40 -c 2 -a 0 -i 14 -k AGT 
- -t 1.626655677 -s 1 -d -1 -p ack -e 40 -c 2 -a 0 -i 14 -k AGT
h -t 1.626655677 -s 1 -d -1 -p ack -e 40 -c 2 -a 0 -i 14 -k AGT
+ -t 1.626655677 -s 1 -d 0 -p ack -e 60 -c 2 -a 0 -i 14 -k RTR 
- -t 1.626655677 -s 1 -d 0 -p ack -e 60 -c 2 -a 0 -i 14 -k RTR
h -t 1.626655677 -s 1 -d 0 -p ack -e 60 -c 2 -a 0 -i 14 -k RTR
r -t 1.626945489 -s 0 -d -1 -p ACK -e 38 -c 2 -a 0 -i 0 -k MAC
+ -t 1.627275489 -s 0 -d -1 -p RTS -e 44 -c 2 -a 0 -i 0 -k MAC 
- -t 1.627275489 -s 0 -d -1 -p RTS -e 44 -c 2 -a 0 -i 0 -k MAC
h -t 1.627275489 -s 0 -d -1 -p RTS -e 44 -c 2 -a 0 -i 0 -k MAC
r -t 1.627628300 -s 1 -d -1 -p RTS -e 44 -c 2 -a 0 -i 0 -k MAC
+ -t 1.627638300 -s 1 -d -1 -p CTS -e 38 -c 2 -a 0 -i 0 -k MAC 
- -t 1.627638300 -s 1 -d -1 -p CTS -e 38 -c 2 -a 0 -i 0 -k MAC
h -t 1.627638300 -s 1 -d -1 -p CTS -e 38 -c 2 -a 0 -i 0 -k MAC
r -t 1.627943112 -s 0 -d -1 -p CTS -e 38 -c 2 -a 0 -i 0 -k MAC
+ -t 1.627953112 -s 0 -d 1 -p tcp -e 1618 -c 2 -a 0 -i 13 -k MAC 
- -t 1.627953112 -s 0 -d 1 -p tcp -e 1618 -c 2 -a 0 -i 13 -k MAC
h -t 1.627953112 -s 0 -d 1 -p tcp -e 1618 -c 2 -a 0 -i 13 -k MAC
+ -t 1.639638342 -s 2 -d -1 -p message -e 44 -c 2 -a 0 -i 15 -k RTR 
- -t 1.639638342 -s 2 -d -1 -p message -e 44 -c 2 -a 0 -i 15 -k RTR
h -t 1.639638342 -s 2 -d -1 -p message -e 44 -c 2 -a 0 -i 15 -k RTR
r -t 1.640897923 -s 1 -d 1 -p tcp -e 1560 -c 2 -a 0 -i 13 -k MAC
+ -t 1.640907923 -s 1 -d -1 -p ACK -e 38 -c 2 -a 0 -i 0 -k MAC 
- -t 1.640907923 -s 1 -d -1 -p ACK -e 38 -c 2 -a 0 -i 0 -k MAC
h -t 1.640907923 -s 1 -d -1 -p ACK -e 38 -c 2 -a 0 -i 0 -k MAC
r -t 1.640922923 -s 1 -d 1 -p tcp -e 1560 -c 2 -a 0 -i 13 -k AGT
+ -t 1.640922923 -s 1 -d -1 -p ack -e 40 -c 2 -a 0 -i 16 -k AGT 
- -t 1.640922923 -s 1 -d -1 -p ack -e 40 -c 2 -a 0 -i 16 -k AGT
h -t 1.640922923 -s 1 -d -1 -p ack -e 40 -c 2 -a 0 -i 16 -k AGT
+ -t 1.640922923 -s 1 -d 0 -p ack -e 60 -c 2 -a 0 -i 16 -k RTR 
- -t 1.640922923 -s 1 -d 0 -p ack -e 60 -c 2 -a 0 -i 16 -k RTR
h -t 1.640922923 -s 1 -d 0 -p ack -e 60 -c 2 -a 0 -i 16 -k RTR
r -t 1.641212735 -s 0 -d -1 -p ACK -e 38 -c 2 -a 0 -i 0 -k MAC
+ -t 1.641481923 -s 1 -d -1 -p RTS -e 44 -c 2 -a 0 -i 0 -k MAC 
- -t 1.641481923 -s 1 -d -1 -p RTS -e 44 -c 2 -a 0 -i 0 -k MAC
h -t 1.641481923 -s 1 -d -1 -p RTS -e 44 -c 2 -a 0 -i 0 -k MAC
r -t 1.641834735 -s 0 -d -1 -p RTS -e 44 -c 2 -a 0 -i 0 -k MAC
+ -t 1.641844735 -s 0 -d -1 -p CTS -e 38 -c 2 -a 0 -i 0 -k MAC 
- -t 1.641844735 -s 0 -d -1 -p CTS -e 38 -c 2 -a 0 -i 0 -k MAC
h -t 1.641844735 -s 0 -d -1 -p CTS -e 38 -c 2 -a 0 -i 0 -k MAC
r -t 1.642149547 -s 1 -d -1 -p CTS -e 38 -c 2 -a 0 -i 0 -k MAC
+ -t 1.642159547 -s 1 -d 0 -p ack -e 118 -c 2 -a 0 -i 14 -k MAC 
- -t 1.642159547 -s 1 -d 0 -p ack -e 118 -c 2 -a 0 -i 14 -k MAC
h -t 1.642159547 -s 1 -d 0 -p ack -e 118 -c 2 -a 0 -i 14 -k MAC
r -t 1.643104358 -s 0 -d 0 -p ack -e 60 -c 2 -a 0 -i 14 -k MAC
+ -t 1.643114358 -s 0 -d -1 -p ACK -e 38 -c 2 -a 0 -i 0 -k MAC 
- -t 1.643114358 -s 0 -d -1 -p ACK -e 38 -c 2 -a 0 -i 0 -k MAC
h -t 1.643114358 -s 0 -d -1 -p ACK -e 38 -c 2 -a 0 -i 0 -k MAC
r -t 1.643129358 -s 0 -d 0 -p ack -e 60 -c 2 -a 0 -i 14 -k AGT
+ -t 1.643129358 -s 0 -d -1 -p tcp -e 1540 -c 2 -a 0 -i 17 -k AGT 
- -t 1.643129358 -s 0 -d -1 -p tcp -e 1540 -c 2 -a 0 -i 17 -k AGT
h -t 1.643129358 -s 0 -d -1 -p tcp -e 1540 -c 2 -a 0 -i 17 -k AGT
+ -t 1.643129358 -s 0 -d 1 -p tcp -e 1560 -c 2 -a 0 -i 17 -k RTR 
- -t 1.643129358 -s 0 -d 1 -p tcp -e 1560 -c 2 -a 0 -i 17 -k RTR
h -t 1.643129358 -s 0 -d 1 -p tcp -e 1560 -c 2 -a 0 -i 17 -k RTR
+ -t 1.643129358 -s 0 -d -1 -p tcp -e 1540 -c 2 -a 0 -i 18 -k AGT 
- -t 1.643129358 -s 0 -d -1 -p tcp -e 1540 -c 2 -a 0 -i 18 -k AGT
h -t 1.643129358 -s 0 -d -1 -p tcp -e 1540 -c 2 -a 0 -i 18 -k AGT
+ -t 1.643129358 -s 0 -d 1 -p tcp -e 1560 -c 2 -a 0 -i 18 -k RTR 
- -t 1.643129358 -s 0 -d 1 -p tcp -e 1560 -c 2 -a 0 -i 18 -k RTR
h -t 1.643129358 -s 0 -d 1 -p tcp -e 1560 -c 2 -a 0 -i 18 -k RTR
r -t 1.643419170 -s 1 -d -1 -p ACK -e 38 -c 2 -a 0 -i 0 -k MAC
+ -t 1.643469170 -s 1 -d -1 -p RTS -e 44 -c 2 -a 0 -i 0 -k MAC 
- -t 1.643469170 -s 1 -d -1 -p RTS -e 44 -c 2 -a 0 -i 0 -k MAC
h -t 1.643469170 -s 1 -d -1 -p RTS -e 44 -c 2 -a 0 -i 0 -k MAC
r -t 1.643821981 -s 0 -d -1 -p RTS -e 44 -c 2 -a 0 -i 0 -k MAC
+ -t 1.643831981 -s 0 -d -1 -p CTS -e 38 -c 2 -a 0 -i 0 -k MAC 
- -t 1.643831981 -s 0 -d -1 -p CTS -e 38 -c 2 -a 0 -i 0 -k MAC
h -t 1.643831981 -s 0 -d -1 -p CTS -e 38 -c 2 -a 0 -i 0 -k MAC
r -t 1.644136793 -s 1 -d -1 -p CTS -e 38 -c 2 -a 0 -i 0 -k MAC
+ -t 1.644146793 -s 1 -d 0 -p ack -e 118 -c 2 -a 0 -i 16 -k MAC 
- -t 1.644146793 -s 1 -d 0 -p ack -e 118 -c 2 -a 0 -i 16 -k MAC
h -t 1.644146793 -s 1 -d 0 -p ack -e 118 -c 2 -a 0 -i 16 -k MAC
r -t 1.645091604 -s 0 -d 0 -p ack -e 60 -c 2 -a 0 -i 16 -k MAC
+ -t 1.645101604 -s 0 -d -1 -p ACK -e 38 -c 2 -a 0 -i 0 -k MAC 
- -t 1.645101604 -s 0 -d -1 -p ACK -e 38 -c 2 -a 0 -i 0 -k MAC
h -t 1.645101604 -s 0 -d -1 -p ACK -e 38 -c 2 -a 0 -i 0 -k MAC
r -t 1.645116604 -s 0 -d 0 -p ack -e 60 -c 2 -a 0 -i 16 -k AGT
+ -t 1.645116604 -s 0 -d -1 -p tcp -e 1540 -c 2 -a 0 -i 19 -k AGT 
- -t 1.645116604 -s 0 -d -1 -p tcp -e 1540 -c 2 -a 0 -i 19 -k AGT
h -t 1.645116604 -s 0 -d -1 -p tcp -e 1540 -c 2 -a 0 -i 19 -k AGT
+ -t 1.645116604 -s 0 -d 1 -p tcp -e 1560 -c 2 -a 0 -i 19 -k RTR 
- -t 1.645116604 -s 0 -d 1 -p tcp -e 1560 -c 2 -a 0 -i 19 -k RTR
h -t 1.645116604 -s 0 -d 1 -p tcp -e 1560 -c 2 -a 0 -i 19 -k RTR
+ -t 1.645116604 -s 0 -d -1 -p tcp -e 1540 -c 2 -a 0 -i 20 -k AGT 
- -t 1.645116604 -s 0 -d -1 -p tcp -e 1540 -c 2 -a 0 -i 20 -k AGT
h -t 1.645116604 -s 0 -d -1 -p tcp -e 1540 -c 2 -a 0 -i 20 -k AGT
+ -t 1.645116604 -s 0 -d 1 -p tcp -e 1560 -c 2 -a 0 -i 20 -k RTR 
- -t 1.645116604 -s 0 -d 1 -p tcp -e 1560 -c 2 -a 0 -i 20 -k RTR
h -t 1.645116604 -s 0 -d 1 -p tcp -e 1560 -c 2 -a 0 -i 20 -k RTR
r -t 1.645406416 -s 1 -d -1 -p ACK -e 38 -c 2 -a 0 -i 0 -k MAC
+ -t 1.645735604 -s 0 -d -1 -p RTS -e 44 -c 2 -a 0 -i 0 -k MAC 
- -t 1.645735604 -s 0 -d -1 -p RTS -e 44 -c 2 -a 0 -i 0 -k MAC
h -t 1.645735604 -s 0 -d -1 -p RTS -e 44 -c 2 -a 0 -i 0 -k MAC
r -t 1.646088416 -s 1 -d -1 -p RTS -e 44 -c 2 -a 0 -i 0 -k MAC
+ -t 1.646098416 -s 1 -d -1 -p CTS -e 38 -c 2 -a 0 -i 0 -k MAC 
- -t 1.646098416 -s 1 -d -1 -p CTS -e 38 -c 2 -a 0 -i 0 -k MAC
h -t 1.646098416 -s 1 -d -1 -p CTS -e 38 -c 2 -a 0 -i 0 -k MAC
r -t 1.646403227 -s 0 -d -1 -p CTS -e 38 -c 2 -a 0 -i 0 -k MAC
+ -t 1.646413227 -s 0 -d 1 -p tcp -e 1618 -c 2 -a 0 -i 17 -k MAC 
- -t 1.646413227 -s 0 -d 1 -p tcp -e 1618 -c 2 -a 0 -i 17 -k MAC
h -t 1.646413227 -s 0 -d 1 -p tcp -e 1618 -c 2 -a 0 -i 17 -k MAC
r -t 1.659358039 -s 1 -d 1 -p tcp -e 1560 -c 2 -a 0 -i 17 -k MAC
+ -t 1.659368039 -s 1 -d -1 -p ACK -e 38 -c 2 -a 0 -i 0 -k MAC 
- -t 1.659368039 -s 1 -d -1 -p ACK -e 38 -c 2 -a 0 -i 0 -k MAC
h -t 1.659368039 -s 1 -d -1 -p ACK -e 38 -c 2 -a 0 -i 0 -k MAC
r -t 1.659383039 -s 1 -d 1 -p tcp -e 1560 -c 2 -a 0 -i 17 -k AGT
+ -t 1.659383039 -s 1 -d -1 -p ack -e 40 -c 2 -a 0 -i 21 -k AGT 
- -t 1.659383039 -s 1 -d -1 -p ack -e 40 -c 2 -a 0 -i 21 -k AGT
h -t 1.659383039 -s 1 -d -1 -p ack -e 40 -c 2 -a 0 -i 21 -k AGT
+ -t 1.659383039 -s 1 -d 0 -p ack -e 60 -c 2 -a 0 -i 21 -k RTR 
- -t 1.659383039 -s 1 -d 0 -p ack -e 60 -c 2 -a 0 -i 21 -k RTR
h -t 1.659383039 -s 1 -d 0 -p ack -e 60 -c 2 -a 0 -i 21 -k RTR
r -t 1.659672850 -s 0 -d -1 -p ACK -e 38 -c 2 -a 0 -i 0 -k MAC
+ -t 1.659882850 -s 0 -d -1 -p RTS -e 44 -c 2 -a 0 -i 0 -k MAC 
- -t 1.659882850 -s 0 -d -1 -p RTS -e 44 -c 2 -a 0 -i 0 -k MAC
h -t 1.659882850 -s 0 -d -1 -p RTS -e 44 -c 2 -a 0 -i 0 -k MAC
r -t 1.660235662 -s 1 -d -1 -p RTS -e 44 -c 2 -a 0 -i 0 -k MAC
+ -t 1.660245662 -s 1 -d -1 -p CTS -e 38 -c 2 -a 0 -i 0 -k MAC 
- -t 1.660245662 -s 1 -d -1 -p CTS -e 38 -c 2 -a 0 -i 0 -k MAC
h -t 1.660245662 -s 1 -d -1 -p CTS -e 38 -c 2 -a 0 -i 0 -k MAC
r -t 1.660550474 -s 0 -d -1 -p CTS -e 38 -c 2 -a 0 -i 0 -k MAC
+ -t 1.660560474 -s 0 -d 1 -p tcp -e 1618 -c 2 -a 0 -i 18 -k MAC 
- -t 1.660560474 -s 0 -d 1 -p tcp -e 1618 -c 2 -a 0 -i 18 -k MAC
h -t 1.660560474 -s 0 -d 1 -p tcp -e 1618 -c 2 -a 0 -i 18 -k MAC
r -t 1.673505285 -s 1 -d 1 -p tcp -e 1560 -c 2 -a 0 -i 18 -k MAC
+ -t 1.673515285 -s 1 -d -1 -p ACK -e 38 -c 2 -a 0 -i 0 -k MAC 
- -t 1.673515285 -s 1 -d -1 -p ACK -e 38 -c 2 -a 0 -i 0 -k MAC
h -t 1.673515285 -s 1 -d -1 -p ACK -e 38 -c 2 -a 0 -i 0 -k MAC
r -t 1.673530285 -s 1 -d 1 -p tcp -e 1560 -c 2 -a 0 -i 18 -k AGT
+ -t 1.673530285 -s 1 -d -1 -p ack -e 40 -c 2 -a 0 -i 22 -k AGT 
- -t 1.673530285 -s 1 -d -1 -p ack -e 40 -c 2 -a 0 -i 22 -k AGT
h -t 1.673530285 -s 1 -d -1 -p ack -e 40 -c 2 -a 0 -i 22 -k AGT
+ -t 1.673530285 -s 1 -d 0 -p ack -e 60 -c 2 -a 0 -i 22 -k RTR 
- -t 1.673530285 -s 1 -d 0 -p ack -e 60 -c 2 -a 0 -i 22 -k RTR
h -t 1.673530285 -s 1 -d 0 -p ack -e 60 -c 2 -a 0 -i 22 -k RTR
r -t 1.673820097 -s 0 -d -1 -p ACK -e 38 -c 2 -a 0 -i 0 -k MAC
+ -t 1.674029285 -s 1 -d -1 -p RTS -e 44 -c 2 -a 0 -i 0 -k MAC 
- -t 1.674029285 -s 1 -d -1 -p RTS -e 44 -c 2 -a 0 -i 0 -k MAC
h -t 1.674029285 -s 1 -d -1 -p RTS -e 44 -c 2 -a 0 -i 0 -k MAC
r -t 1.674382097 -s 0 -d -1 -p RTS -e 44 -c 2 -a 0 -i 0 -k MAC
+ -t 1.674392097 -s 0 -d -1 -p CTS -e 38 -c 2 -a 0 -i 0 -k MAC 
- -t 1.674392097 -s 0 -d -1 -p CTS -e 38 -c 2 -a 0 -i 0 -k MAC
h -t 1.674392097 -s 0 -d -1 -p CTS -e 38 -c 2 -a 0 -i 0 -k MAC
r -t 1.674696908 -s 1 -d -1 -p CTS -e 38 -c 2 -a 0 -i 0 -k MAC
+ -t 1.674706908 -s 1 -d 0 -p ack -e 118 -c 2 -a 0 -i 21 -k MAC 
- -t 1.674706908 -s 1 -d 0 -p ack -e 118 -c 2 -a 0 -i 21 -k MAC
h -t 1.674706908 -s 1 -d 0 -p ack -e 118 -c 2 -a 0 -i 21 -k MAC
r -t 1.675651720 -s 0 -d 0 -p ack -e 60 -c 2 -a 0 -i 21 -k MAC
+ -t 1.675661720 -s 0 -d -1 -p ACK -e 38 -c 2 -a 0 -i 0 -k MAC 
- -t 1.675661720 -s 0 -d -1 -p ACK -e 38 -c 2 -a 0 -i 0 -k MAC
h -t 1.675661720 -s 0 -d -1 -p ACK -e 38 -c 2 -a 0 -i 0 -k MAC
r -t 1.675676720 -s 0 -d 0 -p ack -e 60 -c 2 -a 0 -i 21 -k AGT
+ -t 1.675676720 -s 0 -d -1 -p tcp -e 1540 -c 2 -a 0 -i 23 -k AGT 
- -t 1.675676720 -s 0 -d -1 -p tcp -e 1540 -c 2 -a 0 -i 23 -k AGT
h -t 1.675676720 -s 0 -d -1 -p tcp -e 1540 -c 2 -a 0 -i 23 -k AGT
+ -t 1.675676720 -s 0 -d 1 -p tcp -e 1560 -c 2 -a 0 -i 23 -k RTR 
- -t 1.675676720 -s 0 -d 1 -p tcp -e 1560 -c 2 -a 0 -i 23 -k RTR
h -t 1.675676720 -s 0 -d 1 -p tcp -e 1560 -c 2 -a 0 -i 23 -k RTR
+ -t 1.675676720 -s 0 -d -1 -p tcp -e 1540 -c 2 -a 0 -i 24 -k AGT 
- -t 1.675676720 -s 0 -d -1 -p tcp -e 1540 -c 2 -a 0 -i 24 -k AGT
h -t 1.675676720 -s 0 -d -1 -p tcp -e 1540 -c 2 -a 0 -i 24 -k AGT
+ -t 1.675676720 -s 0 -d 1 -p tcp -e 1560 -c 2 -a 0 -i 24 -k RTR 
- -t 1.675676720 -s 0 -d 1 -p tcp -e 1560 -c 2 -a 0 -i 24 -k RTR
h -t 1.675676720 -s 0 -d 1 -p tcp -e 1560 -c 2 -a 0 -i 24 -k RTR
r -t 1.675966531 -s 1 -d -1 -p ACK -e 38 -c 2 -a 0 -i 0 -k MAC
+ -t 1.676095720 -s 0 -d -1 -p RTS -e 44 -c 2 -a 0 -i 0 -k MAC 
- -t 1.676095720 -s 0 -d -1 -p RTS -e 44 -c 2 -a 0 -i 0 -k MAC
h -t 1.676095720 -s 0 -d -1 -p RTS -e 44 -c 2 -a 0 -i 0 -k MAC
+ -t 1.676096531 -s 1 -d -1 -p RTS -e 44 -c 2 -a 0 -i 0 -k MAC 
- -t 1.676096531 -s 1 -d -1 -p RTS -e 44 -c 2 -a 0 -i 0 -k MAC
h -t 1.676096531 -s 1 -d -1 -p RTS -e 44 -c 2 -a 0 -i 0 -k MAC
+ -t 1.676923411 -s 2 -d -1 -p RTS -e 44 -c 2 -a 0 -i 0 -k MAC 
- -t 1.676923411 -s 2 -d -1 -p RTS -e 44 -c 2 -a 0 -i 0 -k MAC
h -t 1.676923411 -s 2 -d -1 -p RTS -e 44 -c 2 -a 0 -i 0 -k MAC
r -t 1.677276220 -s 0 -d -1 -p RTS -e 44 -c 2 -a 0 -i 0 -k MAC
+ -t 1.677286220 -s 0 -d -1 -p CTS -e 38 -c 2 -a 0 -i 0 -k MAC 
- -t 1.677286220 -s 0 -d -1 -p CTS -e 38 -c 2 -a 0 -i 0 -k MAC
h -t 1.677286220 -s 0 -d -1 -p CTS -e 38 -c 2 -a 0 -i 0 -k MAC
r -t 1.677591029 -s 2 -d -1 -p CTS -e 38 -c 2 -a 0 -i 0 -k MAC
+ -t 1.677601029 -s 2 -d 0 -p tcp -e 138 -c 2 -a 0 -i 7 -k MAC 
- -t 1.677601029 -s 2 -d 0 -p tcp -e 138 -c 2 -a 0 -i 7 -k MAC
h -t 1.677601029 -s 2 -d 0 -p tcp -e 138 -c 2 -a 0 -i 7 -k MAC
r -t 1.678705838 -s 0 -d 0 -p tcp -e 80 -c 2 -a 0 -i 7 -k MAC
+ -t 1.678715838 -s 0 -d -1 -p ACK -e 38 -c 2 -a 0 -i 0 -k MAC 
- -t 1.678715838 -s 0 -d -1 -p ACK -e 38 -c 2 -a 0 -i 0 -k MAC
h -t 1.678715838 -s 0 -d -1 -p ACK -e 38 -c 2 -a 0 -i 0 -k MAC
r -t 1.678730838 -s 0 -d 0 -p tcp -e 80 -c 2 -a 0 -i 7 -k AGT
+ -t 1.678730838 -s 0 -d -1 -p ack -e 40 -c 2 -a 0 -i 25 -k AGT 
- -t 1.678730838 -s 0 -d -1 -p ack -e 40 -c 2 -a 0 -i 25 -k AGT
h -t 1.678730838 -s 0 -d -1 -p ack -e 40 -c 2 -a 0 -i 25 -k AGT
r -t 1.679020647 -s 2 -d -1 -p ACK -e 38 -c 2 -a 0 -i 0 -k MAC
+ -t 1.679159908 -s 1 -d -1 -p RTS -e 44 -c 2 -a 0 -i 0 -k MAC 
- -t 1.679159908 -s 1 -d -1 -p RTS -e 44 -c 2 -a 0 -i 0 -k MAC
h -t 1.679159908 -s 1 -d -1 -p RTS -e 44 -c 2 -a 0 -i 0 -k MAC
r -t 1.679512720 -s 0 -d -1 -p RTS -e 44 -c 2 -a 0 -i 0 -k MAC
+ -t 1.679522720 -s 0 -d -1 -p CTS -e 38 -c 2 -a 0 -i 0 -k MAC 
- -t 1.679522720 -s 0 -d -1 -p CTS -e 38 -c 2 -a 0 -i 0 -k MAC
h -t 1.679522720 -s 0 -d -1 -p CTS -e 38 -c 2 -a 0 -i 0 -k MAC
r -t 1.679827531 -s 1 -d -1 -p CTS -e 38 -c 2 -a 0 -i 0 -k MAC
+ -t 1.679837531 -s 1 -d 0 -p ack -e 118 -c 2 -a 0 -i 22 -k MAC 
- -t 1.679837531 -s 1 -d 0 -p ack -e 118 -c 2 -a 0 -i 22 -k MAC
h -t 1.679837531 -s 1 -d 0 -p ack -e 118 -c 2 -a 0 -i 22 -k MAC
r -t 1.680782343 -s 0 -d 0 -p ack -e 60 -c 2 -a 0 -i 22 -k MAC
+ -t 1.680792343 -s 0 -d -1 -p ACK -e 38 -c 2 -a 0 -i 0 -k MAC 
- -t 1.680792343 -s 0 -d -1 -p ACK -e 38 -c 2 -a 0 -i 0 -k MAC
h -t 1.680792343 -s 0 -d -1 -p ACK -e 38 -c 2 -a 0 -i 0 -k MAC
r -t 1.680807343 -s 0 -d 0 -p ack -e 60 -c 2 -a 0 -i 22 -k AGT
+ -t 1.680807343 -s 0 -d -1 -p tcp -e 1540 -c 2 -a 0 -i 26 -k AGT 
- -t 1.680807343 -s 0 -d -1 -p tcp -e 1540 -c 2 -a 0 -i 26 -k AGT
h -t 1.680807343 -s 0 -d -1 -p tcp -e 1540 -c 2 -a 0 -i 26 -k AGT
+ -t 1.680807343 -s 0 -d 1 -p tcp -e 1560 -c 2 -a 0 -i 26 -k RTR 
- -t 1.680807343 -s 0 -d 1 -p tcp -e 1560 -c 2 -a 0 -i 26 -k RTR
h -t 1.680807343 -s 0 -d 1 -p tcp -e 1560 -c 2 -a 0 -i 26 -k RTR
+ -t 1.680807343 -s 0 -d -1 -p tcp -e 1540 -c 2 -a 0 -i 27 -k AGT 
- -t 1.680807343 -s 0 -d -1 -p tcp -e 1540 -c 2 -a 0 -i 27 -k AGT
h -t 1.680807343 -s 0 -d -1 -p tcp -e 1540 -c 2 -a 0 -i 27 -k AGT
+ -t 1.680807343 -s 0 -d 1 -p tcp -e 1560 -c 2 -a 0 -i 27 -k RTR 
- -t 1.680807343 -s 0 -d 1 -p tcp -e 1560 -c 2 -a 0 -i 27 -k RTR
h -t 1.680807343 -s 0 -d 1 -p tcp -e 1560 -c 2 -a 0 -i 27 -k RTR
r -t 1.681097154 -s 1 -d -1 -p ACK -e 38 -c 2 -a 0 -i 0 -k MAC
+ -t 1.681276428 -s 3 -d -1 -p RTS -e 44 -c 2 -a 0 -i 0 -k MAC 
- -t 1.681276428 -s 3 -d -1 -p RTS -e 44 -c 2 -a 0 -i 0 -k MAC
h -t 1.681276428 -s 3 -d -1 -p RTS -e 44 -c 2 -a 0 -i 0 -k MAC
r -t 1.681629234 -s 0 -d -1 -p RTS -e 44 -c 2 -a 0 -i 0 -k MAC
+ -t 1.681639234 -s 0 -d -1 -p CTS -e 38 -c 2 -a 0 -i 0 -k MAC 
- -t 1.681639234 -s 0 -d -1 -p CTS -e 38 -c 2 -a 0 -i 0 -k MAC
h -t 1.681639234 -s 0 -d -1 -p CTS -e 38 -c 2 -a 0 -i 0 -k MAC
r -t 1.681944041 -s 3 -d -1 -p CTS -e 38 -c 2 -a 0 -i 0 -k MAC
+ -t 1.681954041 -s 3 -d -1 -p ARP -e 86 -c 2 -a 0 -i 0 -k MAC 
- -t 1.681954041 -s 3 -d -1 -p ARP -e 86 -c 2 -a 0 -i 0 -k MAC
h -t 1.681954041 -s 3 -d -1 -p ARP -e 86 -c 2 -a 0 -i 0 -k MAC
r -t 1.682642847 -s 0 -d -1 -p ARP -e 28 -c 2 -a 0 -i 0 -k MAC
+ -t 1.682652847 -s 0 -d -1 -p ACK -e 38 -c 2 -a 0 -i 0 -k MAC 
- -t 1.682652847 -s 0 -d -1 -p ACK -e 38 -c 2 -a 0 -i 0 -k MAC
h -t 1.682652847 -s 0 -d -1 -p ACK -e 38 -c 2 -a 0 -i 0 -k MAC
r -t 1.682957654 -s 3 -d -1 -p ACK -e 38 -c 2 -a 0 -i 0 -k MAC
+ -t 1.683126847 -s 0 -d -1 -p RTS -e 44 -c 2 -a 0 -i 0 -k MAC 
- -t 1.683126847 -s 0 -d -1 -p RTS -e 44 -c 2 -a 0 -i 0 -k MAC
h -t 1.683126847 -s 0 -d -1 -p RTS -e 44 -c 2 -a 0 -i 0 -k MAC
r -t 1.683479659 -s 1 -d -1 -p RTS -e 44 -c 2 -a 0 -i 0 -k MAC
+ -t 1.683489659 -s 1 -d -1 -p CTS -e 38 -c 2 -a 0 -i 0 -k MAC 
- -t 1.683489659 -s 1 -d -1 -p CTS -e 38 -c 2 -a 0 -i 0 -k MAC
h -t 1.683489659 -s 1 -d -1 -p CTS -e 38 -c 2 -a 0 -i 0 -k MAC
r -t 1.683794470 -s 0 -d -1 -p CTS -e 38 -c 2 -a 0 -i 0 -k MAC
+ -t 1.683804470 -s 0 -d 1 -p tcp -e 1618 -c 2 -a 0 -i 19 -k MAC 
- -t 1.683804470 -s 0 -d 1 -p tcp -e 1618 -c 2 -a 0 -i 19 -k MAC
h -t 1.683804470 -s 0 -d 1 -p tcp -e 1618 -c 2 -a 0 -i 19 -k MAC
r -t 1.696749282 -s 1 -d 1 -p tcp -e 1560 -c 2 -a 0 -i 19 -k MAC
+ -t 1.696759282 -s 1 -d -1 -p ACK -e 38 -c 2 -a 0 -i 0 -k MAC 
- -t 1.696759282 -s 1 -d -1 -p ACK -e 38 -c 2 -a 0 -i 0 -k MAC