n -t * -s 0  -x 358 -y 208 -Z 0 -z 20  -v circle -c black
n -t * -s 1  -x 426 -y 412 -Z 0 -z 20  -v circle -c black
n -t * -s 2  -x 588 -y 243 -Z 0 -z 20  -v circle -c black
n -t * -s 3  -x 509 -y 22 -Z 0 -z 20  -v circle -c black
n -t * -s 4  -x 269 -y 3 -Z 0 -z 20  -v circle -c black
n -t * -s 5  -x 143 -y 138 -Z 0 -z 20  -v circle -c black
n -t * -s 6  -x 146 -y 293 -Z 0 -z 20  -v circle -c black
n -t * -s 7  -x 277 -y 426 -Z 0 -z 20  -v circle -c black
n -t * -s 8  -x 1492 -y 257 -Z 0 -z 20  -v circle -c black
n -t * -s 9  -x 1429 -y 491 -Z 0 -z 20  -v circle -c black
n -t * -s 10  -x 1676 -y 402 -Z 0 -z 20  -v circle -c black
n -t * -s 11  -x 1699 -y 137 -Z 0 -z 20  -v circle -c black
n -t * -s 12  -x 1456 -y 24 -Z 0 -z 20  -v circle -c black
n -t * -s 13  -x 1256 -y 227 -Z 0 -z 20  -v circle -c black
n -t * -s 14  -x 585 -y 591 -Z 0 -z 20  -v circle -c black
n -t * -s 15  -x 1224 -y 613 -Z 0 -z 20  -v circle -c black
n -t * -s 16  -x 815 -y 632 -Z 0 -z 20  -v circle -c black
n -t * -s 17  -x 985 -y 623 -Z 0 -z 20  -v circle -c black
V -t * -v 1.0a5 -a 0
W -t * -x 2754 -y 100
A -t * -n 1 -p 0 -o 0x7fffffff -c 30 -a 1
A -t * -h 1 -m 1073741823 -s 0
+ -t 0.002427207 -s 0 -d -1 -p message -e 32 -c 2 -a 0 -i 0 -k RTR 
- -t 0.002427207 -s 0 -d -1 -p message -e 32 -c 2 -a 0 -i 0 -k RTR
h -t 0.002427207 -s 0 -d -1 -p message -e 32 -c 2 -a 0 -i 0 -k RTR
+ -t 0.002822207 -s 0 -d -1 -p message -e 90 -c 2 -a 0 -i 0 -k MAC 
- -t 0.002822207 -s 0 -d -1 -p message -e 90 -c 2 -a 0 -i 0 -k MAC
h -t 0.002822207 -s 0 -d -1 -p message -e 90 -c 2 -a 0 -i 0 -k MAC
r -t 0.003542924 -s 1 -d -1 -p message -e 32 -c 2 -a 0 -i 0 -k MAC
r -t 0.003542952 -s 4 -d -1 -p message -e 32 -c 2 -a 0 -i 0 -k MAC
r -t 0.003542961 -s 5 -d -1 -p message -e 32 -c 2 -a 0 -i 0 -k MAC
r -t 0.003542968 -s 6 -d -1 -p message -e 32 -c 2 -a 0 -i 0 -k MAC
r -t 0.003542982 -s 7 -d -1 -p message -e 32 -c 2 -a 0 -i 0 -k MAC
r -t 0.003542982 -s 2 -d -1 -p message -e 32 -c 2 -a 0 -i 0 -k MAC
r -t 0.003543006 -s 3 -d -1 -p message -e 32 -c 2 -a 0 -i 0 -k MAC
r -t 0.003567924 -s 1 -d -1 -p message -e 32 -c 2 -a 0 -i 0 -k RTR
r -t 0.003567952 -s 4 -d -1 -p message -e 32 -c 2 -a 0 -i 0 -k RTR
r -t 0.003567961 -s 5 -d -1 -p message -e 32 -c 2 -a 0 -i 0 -k RTR
r -t 0.003567968 -s 6 -d -1 -p message -e 32 -c 2 -a 0 -i 0 -k RTR
r -t 0.003567982 -s 7 -d -1 -p message -e 32 -c 2 -a 0 -i 0 -k RTR
r -t 0.003567982 -s 2 -d -1 -p message -e 32 -c 2 -a 0 -i 0 -k RTR
r -t 0.003568006 -s 3 -d -1 -p message -e 32 -c 2 -a 0 -i 0 -k RTR
+ -t 0.030990201 -s 2 -d -1 -p message -e 32 -c 2 -a 0 -i 1 -k RTR 
- -t 0.030990201 -s 2 -d -1 -p message -e 32 -c 2 -a 0 -i 1 -k RTR
h -t 0.030990201 -s 2 -d -1 -p message -e 32 -c 2 -a 0 -i 1 -k RTR
+ -t 0.031305201 -s 2 -d -1 -p message -e 90 -c 2 -a 0 -i 1 -k MAC 
- -t 0.031305201 -s 2 -d -1 -p message -e 90 -c 2 -a 0 -i 1 -k MAC
h -t 0.031305201 -s 2 -d -1 -p message -e 90 -c 2 -a 0 -i 1 -k MAC
r -t 0.032025976 -s 0 -d -1 -p message -e 32 -c 2 -a 0 -i 1 -k MAC
r -t 0.032025981 -s 1 -d -1 -p message -e 32 -c 2 -a 0 -i 1 -k MAC
r -t 0.032025983 -s 3 -d -1 -p message -e 32 -c 2 -a 0 -i 1 -k MAC
r -t 0.032050976 -s 0 -d -1 -p message -e 32 -c 2 -a 0 -i 1 -k RTR
r -t 0.032050981 -s 1 -d -1 -p message -e 32 -c 2 -a 0 -i 1 -k RTR
r -t 0.032050983 -s 3 -d -1 -p message -e 32 -c 2 -a 0 -i 1 -k RTR
+ -t 0.092512184 -s 13 -d -1 -p message -e 32 -c 2 -a 0 -i 2 -k RTR 
- -t 0.092512184 -s 13 -d -1 -p message -e 32 -c 2 -a 0 -i 2 -k RTR
h -t 0.092512184 -s 13 -d -1 -p message -e 32 -c 2 -a 0 -i 2 -k RTR
+ -t 0.092987184 -s 13 -d -1 -p message -e 90 -c 2 -a 0 -i 2 -k MAC 
- -t 0.092987184 -s 13 -d -1 -p message -e 90 -c 2 -a 0 -i 2 -k MAC
h -t 0.092987184 -s 13 -d -1 -p message -e 90 -c 2 -a 0 -i 2 -k MAC
r -t 0.093707977 -s 8 -d -1 -p message -e 32 -c 2 -a 0 -i 2 -k MAC
r -t 0.093732977 -s 8 -d -1 -p message -e 32 -c 2 -a 0 -i 2 -k RTR
+ -t 0.178657599 -s 3 -d -1 -p message -e 32 -c 2 -a 0 -i 3 -k RTR 
- -t 0.178657599 -s 3 -d -1 -p message -e 32 -c 2 -a 0 -i 3 -k RTR
h -t 0.178657599 -s 3 -d -1 -p message -e 32 -c 2 -a 0 -i 3 -k RTR
+ -t 0.179032599 -s 3 -d -1 -p message -e 90 -c 2 -a 0 -i 3 -k MAC 
- -t 0.179032599 -s 3 -d -1 -p message -e 90 -c 2 -a 0 -i 3 -k MAC
h -t 0.179032599 -s 3 -d -1 -p message -e 90 -c 2 -a 0 -i 3 -k MAC
r -t 0.179753381 -s 2 -d -1 -p message -e 32 -c 2 -a 0 -i 3 -k MAC
r -t 0.179753397 -s 0 -d -1 -p message -e 32 -c 2 -a 0 -i 3 -k MAC
r -t 0.179753401 -s 4 -d -1 -p message -e 32 -c 2 -a 0 -i 3 -k MAC
r -t 0.179778381 -s 2 -d -1 -p message -e 32 -c 2 -a 0 -i 3 -k RTR
r -t 0.179778397 -s 0 -d -1 -p message -e 32 -c 2 -a 0 -i 3 -k RTR
r -t 0.179778401 -s 4 -d -1 -p message -e 32 -c 2 -a 0 -i 3 -k RTR
+ -t 0.236665952 -s 15 -d -1 -p message -e 32 -c 2 -a 0 -i 4 -k RTR 
- -t 0.236665952 -s 15 -d -1 -p message -e 32 -c 2 -a 0 -i 4 -k RTR
h -t 0.236665952 -s 15 -d -1 -p message -e 32 -c 2 -a 0 -i 4 -k RTR
+ -t 0.237020952 -s 15 -d -1 -p message -e 90 -c 2 -a 0 -i 4 -k MAC 
- -t 0.237020952 -s 15 -d -1 -p message -e 90 -c 2 -a 0 -i 4 -k MAC
h -t 0.237020952 -s 15 -d -1 -p message -e 90 -c 2 -a 0 -i 4 -k MAC
r -t 0.237741747 -s 9 -d -1 -p message -e 32 -c 2 -a 0 -i 4 -k MAC
r -t 0.237741749 -s 17 -d -1 -p message -e 32 -c 2 -a 0 -i 4 -k MAC
r -t 0.237766747 -s 9 -d -1 -p message -e 32 -c 2 -a 0 -i 4 -k RTR
r -t 0.237766749 -s 17 -d -1 -p message -e 32 -c 2 -a 0 -i 4 -k RTR
+ -t 0.330164466 -s 12 -d -1 -p message -e 32 -c 2 -a 0 -i 5 -k RTR 
- -t 0.330164466 -s 12 -d -1 -p message -e 32 -c 2 -a 0 -i 5 -k RTR
h -t 0.330164466 -s 12 -d -1 -p message -e 32 -c 2 -a 0 -i 5 -k RTR
+ -t 0.330459466 -s 12 -d -1 -p message -e 90 -c 2 -a 0 -i 5 -k MAC 
- -t 0.330459466 -s 12 -d -1 -p message -e 90 -c 2 -a 0 -i 5 -k MAC
h -t 0.330459466 -s 12 -d -1 -p message -e 90 -c 2 -a 0 -i 5 -k MAC
r -t 0.331180252 -s 8 -d -1 -p message -e 32 -c 2 -a 0 -i 5 -k MAC
r -t 0.331205252 -s 8 -d -1 -p message -e 32 -c 2 -a 0 -i 5 -k RTR
+ -t 0.470323817 -s 8 -d -1 -p message -e 32 -c 2 -a 0 -i 6 -k RTR 
- -t 0.470323817 -s 8 -d -1 -p message -e 32 -c 2 -a 0 -i 6 -k RTR
h -t 0.470323817 -s 8 -d -1 -p message -e 32 -c 2 -a 0 -i 6 -k RTR
+ -t 0.470518817 -s 8 -d -1 -p message -e 90 -c 2 -a 0 -i 6 -k MAC 
- -t 0.470518817 -s 8 -d -1 -p message -e 90 -c 2 -a 0 -i 6 -k MAC
h -t 0.470518817 -s 8 -d -1 -p message -e 90 -c 2 -a 0 -i 6 -k MAC
r -t 0.471239598 -s 10 -d -1 -p message -e 32 -c 2 -a 0 -i 6 -k MAC
r -t 0.471239603 -s 12 -d -1 -p message -e 32 -c 2 -a 0 -i 6 -k MAC
r -t 0.471239610 -s 13 -d -1 -p message -e 32 -c 2 -a 0 -i 6 -k MAC
r -t 0.471239614 -s 11 -d -1 -p message -e 32 -c 2 -a 0 -i 6 -k MAC
r -t 0.471239625 -s 9 -d -1 -p message -e 32 -c 2 -a 0 -i 6 -k MAC
r -t 0.471264598 -s 10 -d -1 -p message -e 32 -c 2 -a 0 -i 6 -k RTR
r -t 0.471264603 -s 12 -d -1 -p message -e 32 -c 2 -a 0 -i 6 -k RTR
r -t 0.471264610 -s 13 -d -1 -p message -e 32 -c 2 -a 0 -i 6 -k RTR
r -t 0.471264614 -s 11 -d -1 -p message -e 32 -c 2 -a 0 -i 6 -k RTR
r -t 0.471264625 -s 9 -d -1 -p message -e 32 -c 2 -a 0 -i 6 -k RTR
+ -t 0.621514743 -s 10 -d -1 -p message -e 32 -c 2 -a 0 -i 7 -k RTR 
- -t 0.621514743 -s 10 -d -1 -p message -e 32 -c 2 -a 0 -i 7 -k RTR
h -t 0.621514743 -s 10 -d -1 -p message -e 32 -c 2 -a 0 -i 7 -k RTR
+ -t 0.621769743 -s 10 -d -1 -p message -e 90 -c 2 -a 0 -i 7 -k MAC 
- -t 0.621769743 -s 10 -d -1 -p message -e 90 -c 2 -a 0 -i 7 -k MAC
h -t 0.621769743 -s 10 -d -1 -p message -e 90 -c 2 -a 0 -i 7 -k MAC
r -t 0.622490524 -s 8 -d -1 -p message -e 32 -c 2 -a 0 -i 7 -k MAC
r -t 0.622515524 -s 8 -d -1 -p message -e 32 -c 2 -a 0 -i 7 -k RTR
+ -t 0.632910276 -s 6 -d -1 -p message -e 32 -c 2 -a 0 -i 8 -k RTR 
- -t 0.632910276 -s 6 -d -1 -p message -e 32 -c 2 -a 0 -i 8 -k RTR
h -t 0.632910276 -s 6 -d -1 -p message -e 32 -c 2 -a 0 -i 8 -k RTR
+ -t 0.633205276 -s 6 -d -1 -p message -e 90 -c 2 -a 0 -i 8 -k MAC 
- -t 0.633205276 -s 6 -d -1 -p message -e 90 -c 2 -a 0 -i 8 -k MAC
h -t 0.633205276 -s 6 -d -1 -p message -e 90 -c 2 -a 0 -i 8 -k MAC
r -t 0.633925792 -s 5 -d -1 -p message -e 32 -c 2 -a 0 -i 8 -k MAC
r -t 0.633925898 -s 7 -d -1 -p message -e 32 -c 2 -a 0 -i 8 -k MAC
r -t 0.633926037 -s 0 -d -1 -p message -e 32 -c 2 -a 0 -i 8 -k MAC
r -t 0.633950792 -s 5 -d -1 -p message -e 32 -c 2 -a 0 -i 8 -k RTR
r -t 0.633950898 -s 7 -d -1 -p message -e 32 -c 2 -a 0 -i 8 -k RTR
r -t 0.633951037 -s 0 -d -1 -p message -e 32 -c 2 -a 0 -i 8 -k RTR
+ -t 0.852861869 -s 17 -d -1 -p message -e 32 -c 2 -a 0 -i 9 -k RTR 
- -t 0.852861869 -s 17 -d -1 -p message -e 32 -c 2 -a 0 -i 9 -k RTR
h -t 0.852861869 -s 17 -d -1 -p message -e 32 -c 2 -a 0 -i 9 -k RTR
+ -t 0.853016869 -s 17 -d -1 -p message -e 90 -c 2 -a 0 -i 9 -k MAC 
- -t 0.853016869 -s 17 -d -1 -p message -e 90 -c 2 -a 0 -i 9 -k MAC
h -t 0.853016869 -s 17 -d -1 -p message -e 90 -c 2 -a 0 -i 9 -k MAC
r -t 0.853737437 -s 16 -d -1 -p message -e 32 -c 2 -a 0 -i 9 -k MAC
r -t 0.853737667 -s 15 -d -1 -p message -e 32 -c 2 -a 0 -i 9 -k MAC
r -t 0.853762437 -s 16 -d -1 -p message -e 32 -c 2 -a 0 -i 9 -k RTR
r -t 0.853762667 -s 15 -d -1 -p message -e 32 -c 2 -a 0 -i 9 -k RTR
+ -t 0.884208907 -s 4 -d -1 -p message -e 32 -c 2 -a 0 -i 10 -k RTR 
- -t 0.884208907 -s 4 -d -1 -p message -e 32 -c 2 -a 0 -i 10 -k RTR
h -t 0.884208907 -s 4 -d -1 -p message -e 32 -c 2 -a 0 -i 10 -k RTR
+ -t 0.884583907 -s 4 -d -1 -p message -e 90 -c 2 -a 0 -i 10 -k MAC 
- -t 0.884583907 -s 4 -d -1 -p message -e 90 -c 2 -a 0 -i 10 -k MAC
h -t 0.884583907 -s 4 -d -1 -p message -e 90 -c 2 -a 0 -i 10 -k MAC
r -t 0.885304522 -s 5 -d -1 -p message -e 32 -c 2 -a 0 -i 10 -k MAC
r -t 0.885304652 -s 0 -d -1 -p message -e 32 -c 2 -a 0 -i 10 -k MAC
r -t 0.885304709 -s 3 -d -1 -p message -e 32 -c 2 -a 0 -i 10 -k MAC
r -t 0.885329522 -s 5 -d -1 -p message -e 32 -c 2 -a 0 -i 10 -k RTR
r -t 0.885329652 -s 0 -d -1 -p message -e 32 -c 2 -a 0 -i 10 -k RTR
r -t 0.885329709 -s 3 -d -1 -p message -e 32 -c 2 -a 0 -i 10 -k RTR
+ -t 1.000000000 -s 4 -d -1 -p cbr -e 1000 -c 2 -a 0 -i 11 -k AGT 
- -t 1.000000000 -s 4 -d -1 -p cbr -e 1000 -c 2 -a 0 -i 11 -k AGT
h -t 1.000000000 -s 4 -d -1 -p cbr -e 1000 -c 2 -a 0 -i 11 -k AGT
+ -t 1.000000000 -s 5 -d -1 -p cbr -e 1000 -c 2 -a 0 -i 12 -k AGT 
- -t 1.000000000 -s 5 -d -1 -p cbr -e 1000 -c 2 -a 0 -i 12 -k AGT
h -t 1.000000000 -s 5 -d -1 -p cbr -e 1000 -c 2 -a 0 -i 12 -k AGT
+ -t 1.000000000 -s 6 -d -1 -p cbr -e 1000 -c 2 -a 0 -i 13 -k AGT 
- -t 1.000000000 -s 6 -d -1 -p cbr -e 1000 -c 2 -a 0 -i 13 -k AGT
h -t 1.000000000 -s 6 -d -1 -p cbr -e 1000 -c 2 -a 0 -i 13 -k AGT
+ -t 1.000000000 -s 7 -d -1 -p cbr -e 1000 -c 2 -a 0 -i 14 -k AGT 
- -t 1.000000000 -s 7 -d -1 -p cbr -e 1000 -c 2 -a 0 -i 14 -k AGT
h -t 1.000000000 -s 7 -d -1 -p cbr -e 1000 -c 2 -a 0 -i 14 -k AGT
+ -t 1.000000000 -s 1 -d -1 -p cbr -e 1000 -c 2 -a 0 -i 15 -k AGT 
- -t 1.000000000 -s 1 -d -1 -p cbr -e 1000 -c 2 -a 0 -i 15 -k AGT
h -t 1.000000000 -s 1 -d -1 -p cbr -e 1000 -c 2 -a 0 -i 15 -k AGT
+ -t 1.000000000 -s 2 -d -1 -p cbr -e 1000 -c 2 -a 0 -i 16 -k AGT 
- -t 1.000000000 -s 2 -d -1 -p cbr -e 1000 -c 2 -a 0 -i 16 -k AGT
h -t 1.000000000 -s 2 -d -1 -p cbr -e 1000 -c 2 -a 0 -i 16 -k AGT
+ -t 1.000000000 -s 14 -d -1 -p cbr -e 1000 -c 2 -a 0 -i 17 -k AGT 
- -t 1.000000000 -s 14 -d -1 -p cbr -e 1000 -c 2 -a 0 -i 17 -k AGT
h -t 1.000000000 -s 14 -d -1 -p cbr -e 1000 -c 2 -a 0 -i 17 -k AGT
+ -t 1.000000000 -s 17 -d -1 -p cbr -e 1000 -c 2 -a 0 -i 18 -k AGT 
- -t 1.000000000 -s 17 -d -1 -p cbr -e 1000 -c 2 -a 0 -i 18 -k AGT
h -t 1.000000000 -s 17 -d -1 -p cbr -e 1000 -c 2 -a 0 -i 18 -k AGT
+ -t 1.000000000 -s 15 -d -1 -p cbr -e 1000 -c 2 -a 0 -i 19 -k AGT 
- -t 1.000000000 -s 15 -d -1 -p cbr -e 1000 -c 2 -a 0 -i 19 -k AGT
h -t 1.000000000 -s 15 -d -1 -p cbr -e 1000 -c 2 -a 0 -i 19 -k AGT
+ -t 1.000000000 -s 15 -d 17 -p cbr -e 1020 -c 2 -a 0 -i 19 -k RTR 
- -t 1.000000000 -s 15 -d 17 -p cbr -e 1020 -c 2 -a 0 -i 19 -k RTR
h -t 1.000000000 -s 15 -d 17 -p cbr -e 1020 -c 2 -a 0 -i 19 -k RTR
+ -t 1.000000000 -s 9 -d -1 -p cbr -e 1000 -c 2 -a 0 -i 20 -k AGT 
- -t 1.000000000 -s 9 -d -1 -p cbr -e 1000 -c 2 -a 0 -i 20 -k AGT
h -t 1.000000000 -s 9 -d -1 -p cbr -e 1000 -c 2 -a 0 -i 20 -k AGT
+ -t 1.000000000 -s 9 -d 15 -p cbr -e 1020 -c 2 -a 0 -i 20 -k RTR 
- -t 1.000000000 -s 9 -d 15 -p cbr -e 1020 -c 2 -a 0 -i 20 -k RTR
h -t 1.000000000 -s 9 -d 15 -p cbr -e 1020 -c 2 -a 0 -i 20 -k RTR
+ -t 1.000000000 -s 10 -d -1 -p cbr -e 1000 -c 2 -a 0 -i 21 -k AGT 
- -t 1.000000000 -s 10 -d -1 -p cbr -e 1000 -c 2 -a 0 -i 21 -k AGT
h -t 1.000000000 -s 10 -d -1 -p cbr -e 1000 -c 2 -a 0 -i 21 -k AGT
+ -t 1.000075000 -s 15 -d -1 -p ARP -e 86 -c 2 -a 0 -i 0 -k MAC 
- -t 1.000075000 -s 15 -d -1 -p ARP -e 86 -c 2 -a 0 -i 0 -k MAC
h -t 1.000075000 -s 15 -d -1 -p ARP -e 86 -c 2 -a 0 -i 0 -k MAC
r -t 1.000763795 -s 9 -d -1 -p ARP -e 28 -c 2 -a 0 -i 0 -k MAC
r -t 1.000763797 -s 17 -d -1 -p ARP -e 28 -c 2 -a 0 -i 0 -k MAC
+ -t 1.000938797 -s 17 -d -1 -p RTS -e 44 -c 2 -a 0 -i 0 -k MAC 
- -t 1.000938797 -s 17 -d -1 -p RTS -e 44 -c 2 -a 0 -i 0 -k MAC
h -t 1.000938797 -s 17 -d -1 -p RTS -e 44 -c 2 -a 0 -i 0 -k MAC
r -t 1.001291595 -s 15 -d -1 -p RTS -e 44 -c 2 -a 0 -i 0 -k MAC
+ -t 1.001301595 -s 15 -d -1 -p CTS -e 38 -c 2 -a 0 -i 0 -k MAC 
- -t 1.001301595 -s 15 -d -1 -p CTS -e 38 -c 2 -a 0 -i 0 -k MAC
h -t 1.001301595 -s 15 -d -1 -p CTS -e 38 -c 2 -a 0 -i 0 -k MAC
r -t 1.001606392 -s 17 -d -1 -p CTS -e 38 -c 2 -a 0 -i 0 -k MAC
+ -t 1.001616392 -s 17 -d -1 -p ARP -e 86 -c 2 -a 0 -i 0 -k MAC 
- -t 1.001616392 -s 17 -d -1 -p ARP -e 86 -c 2 -a 0 -i 0 -k MAC
h -t 1.001616392 -s 17 -d -1 -p ARP -e 86 -c 2 -a 0 -i 0 -k MAC
r -t 1.002305189 -s 15 -d -1 -p ARP -e 28 -c 2 -a 0 -i 0 -k MAC
+ -t 1.002315189 -s 15 -d -1 -p ACK -e 38 -c 2 -a 0 -i 0 -k MAC 
- -t 1.002315189 -s 15 -d -1 -p ACK -e 38 -c 2 -a 0 -i 0 -k MAC
h -t 1.002315189 -s 15 -d -1 -p ACK -e 38 -c 2 -a 0 -i 0 -k MAC
r -t 1.002619987 -s 17 -d -1 -p ACK -e 38 -c 2 -a 0 -i 0 -k MAC
+ -t 1.002789189 -s 15 -d -1 -p RTS -e 44 -c 2 -a 0 -i 0 -k MAC 
- -t 1.002789189 -s 15 -d -1 -p RTS -e 44 -c 2 -a 0 -i 0 -k MAC
h -t 1.002789189 -s 15 -d -1 -p RTS -e 44 -c 2 -a 0 -i 0 -k MAC
r -t 1.003141987 -s 17 -d -1 -p RTS -e 44 -c 2 -a 0 -i 0 -k MAC
+ -t 1.003151987 -s 17 -d -1 -p CTS -e 38 -c 2 -a 0 -i 0 -k MAC 
- -t 1.003151987 -s 17 -d -1 -p CTS -e 38 -c 2 -a 0 -i 0 -k MAC
h -t 1.003151987 -s 17 -d -1 -p CTS -e 38 -c 2 -a 0 -i 0 -k MAC
r -t 1.003456784 -s 15 -d -1 -p CTS -e 38 -c 2 -a 0 -i 0 -k MAC
+ -t 1.003466784 -s 15 -d 17 -p cbr -e 1078 -c 2 -a 0 -i 19 -k MAC 
- -t 1.003466784 -s 15 -d 17 -p cbr -e 1078 -c 2 -a 0 -i 19 -k MAC
h -t 1.003466784 -s 15 -d 17 -p cbr -e 1078 -c 2 -a 0 -i 19 -k MAC
+ -t 1.008000000 -s 4 -d -1 -p cbr -e 1000 -c 2 -a 0 -i 22 -k AGT 
- -t 1.008000000 -s 4 -d -1 -p cbr -e 1000 -c 2 -a 0 -i 22 -k AGT
h -t 1.008000000 -s 4 -d -1 -p cbr -e 1000 -c 2 -a 0 -i 22 -k AGT
+ -t 1.008000000 -s 5 -d -1 -p cbr -e 1000 -c 2 -a 0 -i 23 -k AGT 
- -t 1.008000000 -s 5 -d -1 -p cbr -e 1000 -c 2 -a 0 -i 23 -k AGT
h -t 1.008000000 -s 5 -d -1 -p cbr -e 1000 -c 2 -a 0 -i 23 -k AGT
+ -t 1.008000000 -s 6 -d -1 -p cbr -e 1000 -c 2 -a 0 -i 24 -k AGT 
- -t 1.008000000 -s 6 -d -1 -p cbr -e 1000 -c 2 -a 0 -i 24 -k AGT
h -t 1.008000000 -s 6 -d -1 -p cbr -e 1000 -c 2 -a 0 -i 24 -k AGT
+ -t 1.008000000 -s 7 -d -1 -p cbr -e 1000 -c 2 -a 0 -i 25 -k AGT 
- -t 1.008000000 -s 7 -d -1 -p cbr -e 1000 -c 2 -a 0 -i 25 -k AGT
h -t 1.008000000 -s 7 -d -1 -p cbr -e 1000 -c 2 -a 0 -i 25 -k AGT
+ -t 1.008000000 -s 1 -d -1 -p cbr -e 1000 -c 2 -a 0 -i 26 -k AGT 
- -t 1.008000000 -s 1 -d -1 -p cbr -e 1000 -c 2 -a 0 -i 26 -k AGT
h -t 1.008000000 -s 1 -d -1 -p cbr -e 1000 -c 2 -a 0 -i 26 -k AGT
+ -t 1.008000000 -s 2 -d -1 -p cbr -e 1000 -c 2 -a 0 -i 27 -k AGT 
- -t 1.008000000 -s 2 -d -1 -p cbr -e 1000 -c 2 -a 0 -i 27 -k AGT
h -t 1.008000000 -s 2 -d -1 -p cbr -e 1000 -c 2 -a 0 -i 27 -k AGT
+ -t 1.008000000 -s 14 -d -1 -p cbr -e 1000 -c 2 -a 0 -i 28 -k AGT 
- -t 1.008000000 -s 14 -d -1 -p cbr -e 1000 -c 2 -a 0 -i 28 -k AGT
h -t 1.008000000 -s 14 -d -1 -p cbr -e 1000 -c 2 -a 0 -i 28 -k AGT
+ -t 1.008000000 -s 17 -d -1 -p cbr -e 1000 -c 2 -a 0 -i 29 -k AGT 
- -t 1.008000000 -s 17 -d -1 -p cbr -e 1000 -c 2 -a 0 -i 29 -k AGT
h -t 1.008000000 -s 17 -d -1 -p cbr -e 1000 -c 2 -a 0 -i 29 -k AGT
+ -t 1.008000000 -s 15 -d -1 -p cbr -e 1000 -c 2 -a 0 -i 30 -k AGT 
- -t 1.008000000 -s 15 -d -1 -p cbr -e 1000 -c 2 -a 0 -i 30 -k AGT
h -t 1.008000000 -s 15 -d -1 -p cbr -e 1000 -c 2 -a 0 -i 30 -k AGT
+ -t 1.008000000 -s 15 -d 17 -p cbr -e 1020 -c 2 -a 0 -i 30 -k RTR 
- -t 1.008000000 -s 15 -d 17 -p cbr -e 1020 -c 2 -a 0 -i 30 -k RTR
h -t 1.008000000 -s 15 -d 17 -p cbr -e 1020 -c 2 -a 0 -i 30 -k RTR
+ -t 1.008000000 -s 9 -d -1 -p cbr -e 1000 -c 2 -a 0 -i 31 -k AGT 
- -t 1.008000000 -s 9 -d -1 -p cbr -e 1000 -c 2 -a 0 -i 31 -k AGT
h -t 1.008000000 -s 9 -d -1 -p cbr -e 1000 -c 2 -a 0 -i 31 -k AGT
+ -t 1.008000000 -s 9 -d 15 -p cbr -e 1020 -c 2 -a 0 -i 31 -k RTR 
- -t 1.008000000 -s 9 -d 15 -p cbr -e 1020 -c 2 -a 0 -i 31 -k RTR
h -t 1.008000000 -s 9 -d 15 -p cbr -e 1020 -c 2 -a 0 -i 31 -k RTR
+ -t 1.008000000 -s 10 -d -1 -p cbr -e 1000 -c 2 -a 0 -i 32 -k AGT 
- -t 1.008000000 -s 10 -d -1 -p cbr -e 1000 -c 2 -a 0 -i 32 -k AGT
h -t 1.008000000 -s 10 -d -1 -p cbr -e 1000 -c 2 -a 0 -i 32 -k AGT
r -t 1.012091582 -s 17 -d 17 -p cbr -e 1020 -c 2 -a 0 -i 19 -k MAC
+ -t 1.012101582 -s 17 -d -1 -p ACK -e 38 -c 2 -a 0 -i 0 -k MAC 
- -t 1.012101582 -s 17 -d -1 -p ACK -e 38 -c 2 -a 0 -i 0 -k MAC
h -t 1.012101582 -s 17 -d -1 -p ACK -e 38 -c 2 -a 0 -i 0 -k MAC
r -t 1.012116582 -s 17 -d 17 -p cbr -e 1020 -c 2 -a 0 -i 19 -k AGT
r -t 1.012406379 -s 15 -d -1 -p ACK -e 38 -c 2 -a 0 -i 0 -k MAC
+ -t 1.012496379 -s 15 -d -1 -p RTS -e 44 -c 2 -a 0 -i 0 -k MAC 
- -t 1.012496379 -s 15 -d -1 -p RTS -e 44 -c 2 -a 0 -i 0 -k MAC
h -t 1.012496379 -s 15 -d -1 -p RTS -e 44 -c 2 -a 0 -i 0 -k MAC
r -t 1.012849176 -s 17 -d -1 -p RTS -e 44 -c 2 -a 0 -i 0 -k MAC
+ -t 1.012859176 -s 17 -d -1 -p CTS -e 38 -c 2 -a 0 -i 0 -k MAC 
- -t 1.012859176 -s 17 -d -1 -p CTS -e 38 -c 2 -a 0 -i 0 -k MAC
h -t 1.012859176 -s 17 -d -1 -p CTS -e 38 -c 2 -a 0 -i 0 -k MAC
r -t 1.013163974 -s 15 -d -1 -p CTS -e 38 -c 2 -a 0 -i 0 -k MAC
+ -t 1.013173974 -s 15 -d 17 -p cbr -e 1078 -c 2 -a 0 -i 30 -k MAC 
- -t 1.013173974 -s 15 -d 17 -p cbr -e 1078 -c 2 -a 0 -i 30 -k MAC
h -t 1.013173974 -s 15 -d 17 -p cbr -e 1078 -c 2 -a 0 -i 30 -k MAC
+ -t 1.016000000 -s 4 -d -1 -p cbr -e 1000 -c 2 -a 0 -i 33 -k AGT 
- -t 1.016000000 -s 4 -d -1 -p cbr -e 1000 -c 2 -a 0 -i 33 -k AGT
h -t 1.016000000 -s 4 -d -1 -p cbr -e 1000 -c 2 -a 0 -i 33 -k AGT
+ -t 1.016000000 -s 5 -d -1 -p cbr -e 1000 -c 2 -a 0 -i 34 -k AGT 
- -t 1.016000000 -s 5 -d -1 -p cbr -e 1000 -c 2 -a 0 -i 34 -k AGT
h -t 1.016000000 -s 5 -d -1 -p cbr -e 1000 -c 2 -a 0 -i 34 -k AGT
+ -t 1.016000000 -s 6 -d -1 -p cbr -e 1000 -c 2 -a 0 -i 35 -k AGT 
- -t 1.016000000 -s 6 -d -1 -p cbr -e 1000 -c 2 -a 0 -i 35 -k AGT
h -t 1.016000000 -s 6 -d -1 -p cbr -e 1000 -c 2 -a 0 -i 35 -k AGT
+ -t 1.016000000 -s 7 -d -1 -p cbr -e 1000 -c 2 -a 0 -i 36 -k AGT 
- -t 1.016000000 -s 7 -d -1 -p cbr -e 1000 -c 2 -a 0 -i 36 -k AGT
h -t 1.016000000 -s 7 -d -1 -p cbr -e 1000 -c 2 -a 0 -i 36 -k AGT
+ -t 1.016000000 -s 1 -d -1 -p cbr -e 1000 -c 2 -a 0 -i 37 -k AGT 
- -t 1.016000000 -s 1 -d -1 -p cbr -e 1000 -c 2 -a 0 -i 37 -k AGT
h -t 1.016000000 -s 1 -d -1 -p cbr -e 1000 -c 2 -a 0 -i 37 -k AGT
+ -t 1.016000000 -s 2 -d -1 -p cbr -e 1000 -c 2 -a 0 -i 38 -k AGT 
- -t 1.016000000 -s 2 -d -1 -p cbr -e 1000 -c 2 -a 0 -i 38 -k AGT
h -t 1.016000000 -s 2 -d -1 -p cbr -e 1000 -c 2 -a 0 -i 38 -k AGT
+ -t 1.016000000 -s 14 -d -1 -p cbr -e 1000 -c 2 -a 0 -i 39 -k AGT 
- -t 1.016000000 -s 14 -d -1 -p cbr -e 1000 -c 2 -a 0 -i 39 -k AGT
h -t 1.016000000 -s 14 -d -1 -p cbr -e 1000 -c 2 -a 0 -i 39 -k AGT
+ -t 1.016000000 -s 17 -d -1 -p cbr -e 1000 -c 2 -a 0 -i 40 -k AGT 
- -t 1.016000000 -s 17 -d -1 -p cbr -e 1000 -c 2 -a 0 -i 40 -k AGT
h -t 1.016000000 -s 17 -d -1 -p cbr -e 1000 -c 2 -a 0 -i 40 -k AGT
+ -t 1.016000000 -s 15 -d -1 -p cbr -e 1000 -c 2 -a 0 -i 41 -k AGT 
- -t 1.016000000 -s 15 -d -1 -p cbr -e 1000 -c 2 -a 0 -i 41 -k AGT
h -t 1.016000000 -s 15 -d -1 -p cbr -e 1000 -c 2 -a 0 -i 41 -k AGT
+ -t 1.016000000 -s 15 -d 17 -p cbr -e 1020 -c 2 -a 0 -i 41 -k RTR 
- -t 1.016000000 -s 15 -d 17 -p cbr -e 1020 -c 2 -a 0 -i 41 -k RTR
h -t 1.016000000 -s 15 -d 17 -p cbr -e 1020 -c 2 -a 0 -i 41 -k RTR
+ -t 1.016000000 -s 9 -d -1 -p cbr -e 1000 -c 2 -a 0 -i 42 -k AGT 
- -t 1.016000000 -s 9 -d -1 -p cbr -e 1000 -c 2 -a 0 -i 42 -k AGT
h -t 1.016000000 -s 9 -d -1 -p cbr -e 1000 -c 2 -a 0 -i 42 -k AGT
+ -t 1.016000000 -s 9 -d 15 -p cbr -e 1020 -c 2 -a 0 -i 42 -k RTR 
- -t 1.016000000 -s 9 -d 15 -p cbr -e 1020 -c 2 -a 0 -i 42 -k RTR
h -t 1.016000000 -s 9 -d 15 -p cbr -e 1020 -c 2 -a 0 -i 42 -k RTR
+ -t 1.016000000 -s 10 -d -1 -p cbr -e 1000 -c 2 -a 0 -i 43 -k AGT 
- -t 1.016000000 -s 10 -d -1 -p cbr -e 1000 -c 2 -a 0 -i 43 -k AGT
h -t 1.016000000 -s 10 -d -1 -p cbr -e 1000 -c 2 -a 0 -i 43 -k AGT
r -t 1.021798771 -s 17 -d 17 -p cbr -e 1020 -c 2 -a 0 -i 30 -k MAC
+ -t 1.021808771 -s 17 -d -1 -p ACK -e 38 -c 2 -a 0 -i 0 -k MAC 
- -t 1.021808771 -s 17 -d -1 -p ACK -e 38 -c 2 -a 0 -i 0 -k MAC
h -t 1.021808771 -s 17 -d -1 -p ACK -e 38 -c 2 -a 0 -i 0 -k MAC
r -t 1.021823771 -s 17 -d 17 -p cbr -e 1020 -c 2 -a 0 -i 30 -k AGT
r -t 1.022113568 -s 15 -d -1 -p ACK -e 38 -c 2 -a 0 -i 0 -k MAC
+ -t 1.022623568 -s 15 -d -1 -p RTS -e 44 -c 2 -a 0 -i 0 -k MAC 
- -t 1.022623568 -s 15 -d -1 -p RTS -e 44 -c 2 -a 0 -i 0 -k MAC
h -t 1.022623568 -s 15 -d -1 -p RTS -e 44 -c 2 -a 0 -i 0 -k MAC
r -t 1.022976366 -s 17 -d -1 -p RTS -e 44 -c 2 -a 0 -i 0 -k MAC
+ -t 1.022986366 -s 17 -d -1 -p CTS -e 38 -c 2 -a 0 -i 0 -k MAC 
- -t 1.022986366 -s 17 -d -1 -p CTS -e 38 -c 2 -a 0 -i 0 -k MAC
h -t 1.022986366 -s 17 -d -1 -p CTS -e 38 -c 2 -a 0 -i 0 -k MAC
r -t 1.023291163 -s 15 -d -1 -p CTS -e 38 -c 2 -a 0 -i 0 -k MAC
+ -t 1.023301163 -s 15 -d 17 -p cbr -e 1078 -c 2 -a 0 -i 41 -k MAC 
- -t 1.023301163 -s 15 -d 17 -p cbr -e 1078 -c 2 -a 0 -i 41 -k MAC
h -t 1.023301163 -s 15 -d 17 -p cbr -e 1078 -c 2 -a 0 -i 41 -k MAC
+ -t 1.024000000 -s 4 -d -1 -p cbr -e 1000 -c 2 -a 0 -i 44 -k AGT 
- -t 1.024000000 -s 4 -d -1 -p cbr -e 1000 -c 2 -a 0 -i 44 -k AGT
h -t 1.024000000 -s 4 -d -1 -p cbr -e 1000 -c 2 -a 0 -i 44 -k AGT
+ -t 1.024000000 -s 5 -d -1 -p cbr -e 1000 -c 2 -a 0 -i 45 -k AGT 
- -t 1.024000000 -s 5 -d -1 -p cbr -e 1000 -c 2 -a 0 -i 45 -k AGT
h -t 1.024000000 -s 5 -d -1 -p cbr -e 1000 -c 2 -a 0 -i 45 -k AGT
+ -t 1.024000000 -s 6 -d -1 -p cbr -e 1000 -c 2 -a 0 -i 46 -k AGT 
- -t 1.024000000 -s 6 -d -1 -p cbr -e 1000 -c 2 -a 0 -i 46 -k AGT
h -t 1.024000000 -s 6 -d -1 -p cbr -e 1000 -c 2 -a 0 -i 46 -k AGT
+ -t 1.024000000 -s 7 -d -1 -p cbr -e 1000 -c 2 -a 0 -i 47 -k AGT 
- -t 1.024000000 -s 7 -d -1 -p cbr -e 1000 -c 2 -a 0 -i 47 -k AGT
h -t 1.024000000 -s 7 -d -1 -p cbr -e 1000 -c 2 -a 0 -i 47 -k AGT
+ -t 1.024000000 -s 1 -d -1 -p cbr -e 1000 -c 2 -a 0 -i 48 -k AGT 
- -t 1.024000000 -s 1 -d -1 -p cbr -e 1000 -c 2 -a 0 -i 48 -k AGT
h -t 1.024000000 -s 1 -d -1 -p cbr -e 1000 -c 2 -a 0 -i 48 -k AGT
+ -t 1.024000000 -s 2 -d -1 -p cbr -e 1000 -c 2 -a 0 -i 49 -k AGT 
- -t 1.024000000 -s 2 -d -1 -p cbr -e 1000 -c 2 -a 0 -i 49 -k AGT
h -t 1.024000000 -s 2 -d -1 -p cbr -e 1000 -c 2 -a 0 -i 49 -k AGT
+ -t 1.024000000 -s 14 -d -1 -p cbr -e 1000 -c 2 -a 0 -i 50 -k AGT 
- -t 1.024000000 -s 14 -d -1 -p cbr -e 1000 -c 2 -a 0 -i 50 -k AGT
h -t 1.024000000 -s 14 -d -1 -p cbr -e 1000 -c 2 -a 0 -i 50 -k AGT
+ -t 1.024000000 -s 17 -d -1 -p cbr -e 1000 -c 2 -a 0 -i 51 -k AGT 
- -t 1.024000000 -s 17 -d -1 -p cbr -e 1000 -c 2 -a 0 -i 51 -k AGT
h -t 1.024000000 -s 17 -d -1 -p cbr -e 1000 -c 2 -a 0 -i 51 -k AGT
+ -t 1.024000000 -s 15 -d -1 -p cbr -e 1000 -c 2 -a 0 -i 52 -k AGT 
- -t 1.024000000 -s 15 -d -1 -p cbr -e 1000 -c 2 -a 0 -i 52 -k AGT
h -t 1.024000000 -s 15 -d -1 -p cbr -e 1000 -c 2 -a 0 -i 52 -k AGT
+ -t 1.024000000 -s 15 -d 17 -p cbr -e 1020 -c 2 -a 0 -i 52 -k RTR 
- -t 1.024000000 -s 15 -d 17 -p cbr -e 1020 -c 2 -a 0 -i 52 -k RTR
h -t 1.024000000 -s 15 -d 17 -p cbr -e 1020 -c 2 -a 0 -i 52 -k RTR
+ -t 1.024000000 -s 9 -d -1 -p cbr -e 1000 -c 2 -a 0 -i 53 -k AGT 
- -t 1.024000000 -s 9 -d -1 -p cbr -e 1000 -c 2 -a 0 -i 53 -k AGT
h -t 1.024000000 -s 9 -d -1 -p cbr -e 1000 -c 2 -a 0 -i 53 -k AGT
+ -t 1.024000000 -s 9 -d 15 -p cbr -e 1020 -c 2 -a 0 -i 53 -k RTR 
- -t 1.024000000 -s 9 -d 15 -p cbr -e 1020 -c 2 -a 0 -i 53 -k RTR
h -t 1.024000000 -s 9 -d 15 -p cbr -e 1020 -c 2 -a 0 -i 53 -k RTR
+ -t 1.024000000 -s 10 -d -1 -p cbr -e 1000 -c 2 -a 0 -i 54 -k AGT 
- -t 1.024000000 -s 10 -d -1 -p cbr -e 1000 -c 2 -a 0 -i 54 -k AGT
h -t 1.024000000 -s 10 -d -1 -p cbr -e 1000 -c 2 -a 0 -i 54 -k AGT
r -t 1.031925960 -s 17 -d 17 -p cbr -e 1020 -c 2 -a 0 -i 41 -k MAC
+ -t 1.031935960 -s 17 -d -1 -p ACK -e 38 -c 2 -a 0 -i 0 -k MAC 
- -t 1.031935960 -s 17 -d -1 -p ACK -e 38 -c 2 -a 0 -i 0 -k MAC
h -t 1.031935960 -s 17 -d -1 -p ACK -e 38 -c 2 -a 0 -i 0 -k MAC
r -t 1.031950960 -s 17 -d 17 -p cbr -e 1020 -c 2 -a 0 -i 41 -k AGT
+ -t 1.032000000 -s 4 -d -1 -p cbr -e 1000 -c 2 -a 0 -i 55 -k AGT 
- -t 1.032000000 -s 4 -d -1 -p cbr -e 1000 -c 2 -a 0 -i 55 -k AGT
h -t 1.032000000 -s 4 -d -1 -p cbr -e 1000 -c 2 -a 0 -i 55 -k AGT
+ -t 1.032000000 -s 5 -d -1 -p cbr -e 1000 -c 2 -a 0 -i 56 -k AGT 
- -t 1.032000000 -s 5 -d -1 -p cbr -e 1000 -c 2 -a 0 -i 56 -k AGT
h -t 1.032000000 -s 5 -d -1 -p cbr -e 1000 -c 2 -a 0 -i 56 -k AGT
+ -t 1.032000000 -s 6 -d -1 -p cbr -e 1000 -c 2 -a 0 -i 57 -k AGT 
- -t 1.032000000 -s 6 -d -1 -p cbr -e 1000 -c 2 -a 0 -i 57 -k AGT
h -t 1.032000000 -s 6 -d -1 -p cbr -e 1000 -c 2 -a 0 -i 57 -k AGT
+ -t 1.032000000 -s 7 -d -1 -p cbr -e 1000 -c 2 -a 0 -i 58 -k AGT 
- -t 1.032000000 -s 7 -d -1 -p cbr -e 1000 -c 2 -a 0 -i 58 -k AGT
h -t 1.032000000 -s 7 -d -1 -p cbr -e 1000 -c 2 -a 0 -i 58 -k AGT
+ -t 1.032000000 -s 1 -d -1 -p cbr -e 1000 -c 2 -a 0 -i 59 -k AGT 
- -t 1.032000000 -s 1 -d -1 -p cbr -e 1000 -c 2 -a 0 -i 59 -k AGT
h -t 1.032000000 -s 1 -d -1 -p cbr -e 1000 -c 2 -a 0 -i 59 -k AGT
+ -t 1.032000000 -s 2 -d -1 -p cbr -e 1000 -c 2 -a 0 -i 60 -k AGT 
- -t 1.032000000 -s 2 -d -1 -p cbr -e 1000 -c 2 -a 0 -i 60 -k AGT
h -t 1.032000000 -s 2 -d -1 -p cbr -e 1000 -c 2 -a 0 -i 60 -k AGT
+ -t 1.032000000 -s 14 -d -1 -p cbr -e 1000 -c 2 -a 0 -i 61 -k AGT 
- -t 1.032000000 -s 14 -d -1 -p cbr -e 1000 -c 2 -a 0 -i 61 -k AGT
h -t 1.032000000 -s 14 -d -1 -p cbr -e 1000 -c 2 -a 0 -i 61 -k AGT
+ -t 1.032000000 -s 17 -d -1 -p cbr -e 1000 -c 2 -a 0 -i 62 -k AGT 
- -t 1.032000000 -s 17 -d -1 -p cbr -e 1000 -c 2 -a 0 -i 62 -k AGT
h -t 1.032000000 -s 17 -d -1 -p cbr -e 1000 -c 2 -a 0 -i 62 -k AGT
+ -t 1.032000000 -s 15 -d -1 -p cbr -e 1000 -c 2 -a 0 -i 63 -k AGT 
- -t 1.032000000 -s 15 -d -1 -p cbr -e 1000 -c 2 -a 0 -i 63 -k AGT
h -t 1.032000000 -s 15 -d -1 -p cbr -e 1000 -c 2 -a 0 -i 63 -k AGT
+ -t 1.032000000 -s 15 -d 17 -p cbr -e 1020 -c 2 -a 0 -i 63 -k RTR 
- -t 1.032000000 -s 15 -d 17 -p cbr -e 1020 -c 2 -a 0 -i 63 -k RTR
h -t 1.032000000 -s 15 -d 17 -p cbr -e 1020 -c 2 -a 0 -i 63 -k RTR
+ -t 1.032000000 -s 9 -d -1 -p cbr -e 1000 -c 2 -a 0 -i 64 -k AGT 
- -t 1.032000000 -s 9 -d -1 -p cbr -e 1000 -c 2 -a 0 -i 64 -k AGT
h -t 1.032000000 -s 9 -d -1 -p cbr -e 1000 -c 2 -a 0 -i 64 -k AGT
+ -t 1.032000000 -s 9 -d 15 -p cbr -e 1020 -c 2 -a 0 -i 64 -k RTR 
- -t 1.032000000 -s 9 -d 15 -p cbr -e 1020 -c 2 -a 0 -i 64 -k RTR
h -t 1.032000000 -s 9 -d 15 -p cbr -e 1020 -c 2 -a 0 -i 64 -k RTR
+ -t 1.032000000 -s 10 -d -1 -p cbr -e 1000 -c 2 -a 0 -i 65 -k AGT 
- -t 1.032000000 -s 10 -d -1 -p cbr -e 1000 -c 2 -a 0 -i 65 -k AGT
h -t 1.032000000 -s 10 -d -1 -p cbr -e 1000 -c 2 -a 0 -i 65 -k AGT
r -t 1.032240758 -s 15 -d -1 -p ACK -e 38 -c 2 -a 0 -i 0 -k MAC
+ -t 1.032410758 -s 15 -d -1 -p RTS -e 44 -c 2 -a 0 -i 0 -k MAC 
- -t 1.032410758 -s 15 -d -1 -p RTS -e 44 -c 2 -a 0 -i 0 -k MAC
h -t 1.032410758 -s 15 -d -1 -p RTS -e 44 -c 2 -a 0 -i 0 -k MAC
r -t 1.032763555 -s 17 -d -1 -p RTS -e 44 -c 2 -a 0 -i 0 -k MAC
+ -t 1.032773555 -s 17 -d -1 -p CTS -e 38 -c 2 -a 0 -i 0 -k MAC 
- -t 1.032773555 -s 17 -d -1 -p CTS -e 38 -c 2 -a 0 -i 0 -k MAC
h -t 1.032773555 -s 17 -d -1 -p CTS -e 38 -c 2 -a 0 -i 0 -k MAC
r -t 1.033078353 -s 15 -d -1 -p CTS -e 38 -c 2 -a 0 -i 0 -k MAC
+ -t 1.033088353 -s 15 -d 17 -p cbr -e 1078 -c 2 -a 0 -i 52 -k MAC 
- -t 1.033088353 -s 15 -d 17 -p cbr -e 1078 -c 2 -a 0 -i 52 -k MAC
h -t 1.033088353 -s 15 -d 17 -p cbr -e 1078 -c 2 -a 0 -i 52 -k MAC
+ -t 1.040000000 -s 4 -d -1 -p cbr -e 1000 -c 2 -a 0 -i 66 -k AGT 
- -t 1.040000000 -s 4 -d -1 -p cbr -e 1000 -c 2 -a 0 -i 66 -k AGT
h -t 1.040000000 -s 4 -d -1 -p cbr -e 1000 -c 2 -a 0 -i 66 -k AGT
d -t 1.040000000 -s 4 -d -1 -p cbr -e 1020 -c 2 -a 0 -i 11 -k RTR
+ -t 1.040000000 -s 5 -d -1 -p cbr -e 1000 -c 2 -a 0 -i 67 -k AGT 
- -t 1.040000000 -s 5 -d -1 -p cbr -e 1000 -c 2 -a 0 -i 67 -k AGT
h -t 1.040000000 -s 5 -d -1 -p cbr -e 1000 -c 2 -a 0 -i 67 -k AGT
d -t 1.040000000 -s 5 -d -1 -p cbr -e 1020 -c 2 -a 0 -i 12 -k RTR
+ -t 1.040000000 -s 6 -d -1 -p cbr -e 1000 -c 2 -a 0 -i 68 -k AGT 
- -t 1.040000000 -s 6 -d -1 -p cbr -e 1000 -c 2 -a 0 -i 68 -k AGT
h -t 1.040000000 -s 6 -d -1 -p cbr -e 1000 -c 2 -a 0 -i 68 -k AGT
d -t 1.040000000 -s 6 -d -1 -p cbr -e 1020 -c 2 -a 0 -i 13 -k RTR
+ -t 1.040000000 -s 7 -d -1 -p cbr -e 1000 -c 2 -a 0 -i 69 -k AGT 
- -t 1.040000000 -s 7 -d -1 -p cbr -e 1000 -c 2 -a 0 -i 69 -k AGT
h -t 1.040000000 -s 7 -d -1 -p cbr -e 1000 -c 2 -a 0 -i 69 -k AGT
d -t 1.040000000 -s 7 -d -1 -p cbr -e 1020 -c 2 -a 0 -i 14 -k RTR
+ -t 1.040000000 -s 1 -d -1 -p cbr -e 1000 -c 2 -a 0 -i 70 -k AGT 
- -t 1.040000000 -s 1 -d -1 -p cbr -e 1000 -c 2 -a 0 -i 70 -k AGT
h -t 1.040000000 -s 1 -d -1 -p cbr -e 1000 -c 2 -a 0 -i 70 -k AGT
d -t 1.040000000 -s 1 -d -1 -p cbr -e 1020 -c 2 -a 0 -i 15 -k RTR
+ -t 1.040000000 -s 2 -d -1 -p cbr -e 1000 -c 2 -a 0 -i 71 -k AGT 
- -t 1.040000000 -s 2 -d -1 -p cbr -e 1000 -c 2 -a 0 -i 71 -k AGT
h -t 1.040000000 -s 2 -d -1 -p cbr -e 1000 -c 2 -a 0 -i 71 -k AGT
d -t 1.040000000 -s 2 -d -1 -p cbr -e 1020 -c 2 -a 0 -i 16 -k RTR
+ -t 1.040000000 -s 14 -d -1 -p cbr -e 1000 -c 2 -a 0 -i 72 -k AGT 
- -t 1.040000000 -s 14 -d -1 -p cbr -e 1000 -c 2 -a 0 -i 72 -k AGT