s 0.002427207 _0_ RTR  --- 0 message 32 [0 0 0 0] ------- [0:255 -1:255 32 0] 
s 0.002822207 _0_ MAC  --- 0 message 90 [0 ffffffff 0 800] ------- [0:255 -1:255 32 0] 
r 0.003542924 _1_ MAC  --- 0 message 32 [0 ffffffff 0 800] ------- [0:255 -1:255 32 0] 
r 0.003542952 _4_ MAC  --- 0 message 32 [0 ffffffff 0 800] ------- [0:255 -1:255 32 0] 
r 0.003542961 _5_ MAC  --- 0 message 32 [0 ffffffff 0 800] ------- [0:255 -1:255 32 0] 
r 0.003542968 _6_ MAC  --- 0 message 32 [0 ffffffff 0 800] ------- [0:255 -1:255 32 0] 
r 0.003542982 _7_ MAC  --- 0 message 32 [0 ffffffff 0 800] ------- [0:255 -1:255 32 0] 
r 0.003542982 _2_ MAC  --- 0 message 32 [0 ffffffff 0 800] ------- [0:255 -1:255 32 0] 
r 0.003543006 _3_ MAC  --- 0 message 32 [0 ffffffff 0 800] ------- [0:255 -1:255 32 0] 
r 0.003567924 _1_ RTR  --- 0 message 32 [0 ffffffff 0 800] ------- [0:255 -1:255 32 0] 
r 0.003567952 _4_ RTR  --- 0 message 32 [0 ffffffff 0 800] ------- [0:255 -1:255 32 0] 
r 0.003567961 _5_ RTR  --- 0 message 32 [0 ffffffff 0 800] ------- [0:255 -1:255 32 0] 
r 0.003567968 _6_ RTR  --- 0 message 32 [0 ffffffff 0 800] ------- [0:255 -1:255 32 0] 
r 0.003567982 _7_ RTR  --- 0 message 32 [0 ffffffff 0 800] ------- [0:255 -1:255 32 0] 
r 0.003567982 _2_ RTR  --- 0 message 32 [0 ffffffff 0 800] ------- [0:255 -1:255 32 0] 
r 0.003568006 _3_ RTR  --- 0 message 32 [0 ffffffff 0 800] ------- [0:255 -1:255 32 0] 
s 0.030990201 _2_ RTR  --- 1 message 32 [0 0 0 0] ------- [2:255 -1:255 32 0] 
s 0.031305201 _2_ MAC  --- 1 message 90 [0 ffffffff 2 800] ------- [2:255 -1:255 32 0] 
r 0.032025976 _0_ MAC  --- 1 message 32 [0 ffffffff 2 800] ------- [2:255 -1:255 32 0] 
r 0.032025981 _1_ MAC  --- 1 message 32 [0 ffffffff 2 800] ------- [2:255 -1:255 32 0] 
r 0.032025983 _3_ MAC  --- 1 message 32 [0 ffffffff 2 800] ------- [2:255 -1:255 32 0] 
r 0.032050976 _0_ RTR  --- 1 message 32 [0 ffffffff 2 800] ------- [2:255 -1:255 32 0] 
r 0.032050981 _1_ RTR  --- 1 message 32 [0 ffffffff 2 800] ------- [2:255 -1:255 32 0] 
r 0.032050983 _3_ RTR  --- 1 message 32 [0 ffffffff 2 800] ------- [2:255 -1:255 32 0] 
s 0.092512184 _13_ RTR  --- 2 message 32 [0 0 0 0] ------- [13:255 -1:255 32 0] 
s 0.092987184 _13_ MAC  --- 2 message 90 [0 ffffffff d 800] ------- [13:255 -1:255 32 0] 
r 0.093707977 _8_ MAC  --- 2 message 32 [0 ffffffff d 800] ------- [13:255 -1:255 32 0] 
r 0.093732977 _8_ RTR  --- 2 message 32 [0 ffffffff d 800] ------- [13:255 -1:255 32 0] 
s 0.178657599 _3_ RTR  --- 3 message 32 [0 0 0 0] ------- [3:255 -1:255 32 0] 
s 0.179032599 _3_ MAC  --- 3 message 90 [0 ffffffff 3 800] ------- [3:255 -1:255 32 0] 
r 0.179753381 _2_ MAC  --- 3 message 32 [0 ffffffff 3 800] ------- [3:255 -1:255 32 0] 
r 0.179753397 _0_ MAC  --- 3 message 32 [0 ffffffff 3 800] ------- [3:255 -1:255 32 0] 
r 0.179753401 _4_ MAC  --- 3 message 32 [0 ffffffff 3 800] ------- [3:255 -1:255 32 0] 
r 0.179778381 _2_ RTR  --- 3 message 32 [0 ffffffff 3 800] ------- [3:255 -1:255 32 0] 
r 0.179778397 _0_ RTR  --- 3 message 32 [0 ffffffff 3 800] ------- [3:255 -1:255 32 0] 
r 0.179778401 _4_ RTR  --- 3 message 32 [0 ffffffff 3 800] ------- [3:255 -1:255 32 0] 
s 0.236665952 _15_ RTR  --- 4 message 32 [0 0 0 0] ------- [15:255 -1:255 32 0] 
s 0.237020952 _15_ MAC  --- 4 message 90 [0 ffffffff f 800] ------- [15:255 -1:255 32 0] 
r 0.237741747 _9_ MAC  --- 4 message 32 [0 ffffffff f 800] ------- [15:255 -1:255 32 0] 
r 0.237741749 _17_ MAC  --- 4 message 32 [0 ffffffff f 800] ------- [15:255 -1:255 32 0] 
r 0.237766747 _9_ RTR  --- 4 message 32 [0 ffffffff f 800] ------- [15:255 -1:255 32 0] 
r 0.237766749 _17_ RTR  --- 4 message 32 [0 ffffffff f 800] ------- [15:255 -1:255 32 0] 
s 0.330164466 _12_ RTR  --- 5 message 32 [0 0 0 0] ------- [12:255 -1:255 32 0] 
s 0.330459466 _12_ MAC  --- 5 message 90 [0 ffffffff c 800] ------- [12:255 -1:255 32 0] 
r 0.331180252 _8_ MAC  --- 5 message 32 [0 ffffffff c 800] ------- [12:255 -1:255 32 0] 
r 0.331205252 _8_ RTR  --- 5 message 32 [0 ffffffff c 800] ------- [12:255 -1:255 32 0] 
s 0.470323817 _8_ RTR  --- 6 message 32 [0 0 0 0] ------- [8:255 -1:255 32 0] 
s 0.470518817 _8_ MAC  --- 6 message 90 [0 ffffffff 8 800] ------- [8:255 -1:255 32 0] 
r 0.471239598 _10_ MAC  --- 6 message 32 [0 ffffffff 8 800] ------- [8:255 -1:255 32 0] 
r 0.471239603 _12_ MAC  --- 6 message 32 [0 ffffffff 8 800] ------- [8:255 -1:255 32 0] 
r 0.471239610 _13_ MAC  --- 6 message 32 [0 ffffffff 8 800] ------- [8:255 -1:255 32 0] 
r 0.471239614 _11_ MAC  --- 6 message 32 [0 ffffffff 8 800] ------- [8:255 -1:255 32 0] 
r 0.471239625 _9_ MAC  --- 6 message 32 [0 ffffffff 8 800] ------- [8:255 -1:255 32 0] 
r 0.471264598 _10_ RTR  --- 6 message 32 [0 ffffffff 8 800] ------- [8:255 -1:255 32 0] 
r 0.471264603 _12_ RTR  --- 6 message 32 [0 ffffffff 8 800] ------- [8:255 -1:255 32 0] 
r 0.471264610 _13_ RTR  --- 6 message 32 [0 ffffffff 8 800] ------- [8:255 -1:255 32 0] 
r 0.471264614 _11_ RTR  --- 6 message 32 [0 ffffffff 8 800] ------- [8:255 -1:255 32 0] 
r 0.471264625 _9_ RTR  --- 6 message 32 [0 ffffffff 8 800] ------- [8:255 -1:255 32 0] 
s 0.621514743 _10_ RTR  --- 7 message 32 [0 0 0 0] ------- [10:255 -1:255 32 0] 
s 0.621769743 _10_ MAC  --- 7 message 90 [0 ffffffff a 800] ------- [10:255 -1:255 32 0] 
r 0.622490524 _8_ MAC  --- 7 message 32 [0 ffffffff a 800] ------- [10:255 -1:255 32 0] 
r 0.622515524 _8_ RTR  --- 7 message 32 [0 ffffffff a 800] ------- [10:255 -1:255 32 0] 
s 0.632910276 _6_ RTR  --- 8 message 32 [0 0 0 0] ------- [6:255 -1:255 32 0] 
s 0.633205276 _6_ MAC  --- 8 message 90 [0 ffffffff 6 800] ------- [6:255 -1:255 32 0] 
r 0.633925792 _5_ MAC  --- 8 message 32 [0 ffffffff 6 800] ------- [6:255 -1:255 32 0] 
r 0.633925898 _7_ MAC  --- 8 message 32 [0 ffffffff 6 800] ------- [6:255 -1:255 32 0] 
r 0.633926037 _0_ MAC  --- 8 message 32 [0 ffffffff 6 800] ------- [6:255 -1:255 32 0] 
r 0.633950792 _5_ RTR  --- 8 message 32 [0 ffffffff 6 800] ------- [6:255 -1:255 32 0] 
r 0.633950898 _7_ RTR  --- 8 message 32 [0 ffffffff 6 800] ------- [6:255 -1:255 32 0] 
r 0.633951037 _0_ RTR  --- 8 message 32 [0 ffffffff 6 800] ------- [6:255 -1:255 32 0] 
s 0.852861869 _17_ RTR  --- 9 message 32 [0 0 0 0] ------- [17:255 -1:255 32 0] 
s 0.853016869 _17_ MAC  --- 9 message 90 [0 ffffffff 11 800] ------- [17:255 -1:255 32 0] 
r 0.853737437 _16_ MAC  --- 9 message 32 [0 ffffffff 11 800] ------- [17:255 -1:255 32 0] 
r 0.853737667 _15_ MAC  --- 9 message 32 [0 ffffffff 11 800] ------- [17:255 -1:255 32 0] 
r 0.853762437 _16_ RTR  --- 9 message 32 [0 ffffffff 11 800] ------- [17:255 -1:255 32 0] 
r 0.853762667 _15_ RTR  --- 9 message 32 [0 ffffffff 11 800] ------- [17:255 -1:255 32 0] 
s 0.884208907 _4_ RTR  --- 10 message 32 [0 0 0 0] ------- [4:255 -1:255 32 0] 
s 0.884583907 _4_ MAC  --- 10 message 90 [0 ffffffff 4 800] ------- [4:255 -1:255 32 0] 
r 0.885304522 _5_ MAC  --- 10 message 32 [0 ffffffff 4 800] ------- [4:255 -1:255 32 0] 
r 0.885304652 _0_ MAC  --- 10 message 32 [0 ffffffff 4 800] ------- [4:255 -1:255 32 0] 
r 0.885304709 _3_ MAC  --- 10 message 32 [0 ffffffff 4 800] ------- [4:255 -1:255 32 0] 
r 0.885329522 _5_ RTR  --- 10 message 32 [0 ffffffff 4 800] ------- [4:255 -1:255 32 0] 
r 0.885329652 _0_ RTR  --- 10 message 32 [0 ffffffff 4 800] ------- [4:255 -1:255 32 0] 
r 0.885329709 _3_ RTR  --- 10 message 32 [0 ffffffff 4 800] ------- [4:255 -1:255 32 0] 
s 1.000000000 _4_ AGT  --- 11 cbr 1000 [0 0 0 0] ------- [4:0 1:2 32 0] [0] 0 0
r 1.000000000 _4_ RTR  --- 11 cbr 1000 [0 0 0 0] ------- [4:0 1:2 32 0] [0] 0 0
s 1.000000000 _5_ AGT  --- 12 cbr 1000 [0 0 0 0] ------- [5:0 1:1 32 0] [0] 0 0
r 1.000000000 _5_ RTR  --- 12 cbr 1000 [0 0 0 0] ------- [5:0 1:1 32 0] [0] 0 0
s 1.000000000 _6_ AGT  --- 13 cbr 1000 [0 0 0 0] ------- [6:0 1:0 32 0] [0] 0 0
r 1.000000000 _6_ RTR  --- 13 cbr 1000 [0 0 0 0] ------- [6:0 1:0 32 0] [0] 0 0
s 1.000000000 _7_ AGT  --- 14 cbr 1000 [0 0 0 0] ------- [7:0 1:4 32 0] [0] 0 0
r 1.000000000 _7_ RTR  --- 14 cbr 1000 [0 0 0 0] ------- [7:0 1:4 32 0] [0] 0 0
s 1.000000000 _1_ AGT  --- 15 cbr 1000 [0 0 0 0] ------- [1:5 14:0 32 0] [0] 0 0
r 1.000000000 _1_ RTR  --- 15 cbr 1000 [0 0 0 0] ------- [1:5 14:0 32 0] [0] 0 0
s 1.000000000 _2_ AGT  --- 16 cbr 1000 [0 0 0 0] ------- [2:0 1:6 32 0] [0] 0 0
r 1.000000000 _2_ RTR  --- 16 cbr 1000 [0 0 0 0] ------- [2:0 1:6 32 0] [0] 0 0
s 1.000000000 _14_ AGT  --- 17 cbr 1000 [0 0 0 0] ------- [14:1 16:0 32 0] [0] 0 0
r 1.000000000 _14_ RTR  --- 17 cbr 1000 [0 0 0 0] ------- [14:1 16:0 32 0] [0] 0 0
s 1.000000000 _17_ AGT  --- 18 cbr 1000 [0 0 0 0] ------- [17:0 16:1 32 0] [0] 0 0
r 1.000000000 _17_ RTR  --- 18 cbr 1000 [0 0 0 0] ------- [17:0 16:1 32 0] [0] 0 0
s 1.000000000 _15_ AGT  --- 19 cbr 1000 [0 0 0 0] ------- [15:0 17:1 32 0] [0] 0 0
r 1.000000000 _15_ RTR  --- 19 cbr 1000 [0 0 0 0] ------- [15:0 17:1 32 0] [0] 0 0
s 1.000000000 _15_ RTR  --- 19 cbr 1020 [0 0 0 0] ------- [15:0 17:1 32 17] [0] 0 0
s 1.000000000 _9_ AGT  --- 20 cbr 1000 [0 0 0 0] ------- [9:0 15:1 32 0] [0] 0 0
r 1.000000000 _9_ RTR  --- 20 cbr 1000 [0 0 0 0] ------- [9:0 15:1 32 0] [0] 0 0
s 1.000000000 _9_ RTR  --- 20 cbr 1020 [0 0 0 0] ------- [9:0 15:1 32 15] [0] 0 0
s 1.000000000 _10_ AGT  --- 21 cbr 1000 [0 0 0 0] ------- [10:0 9:1 32 0] [0] 0 0
r 1.000000000 _10_ RTR  --- 21 cbr 1000 [0 0 0 0] ------- [10:0 9:1 32 0] [0] 0 0
s 1.000075000 _15_ MAC  --- 0 ARP 86 [0 ffffffff f 806] ------- [REQUEST 15/15 0/17]
r 1.000763795 _9_ MAC  --- 0 ARP 28 [0 ffffffff f 806] ------- [REQUEST 15/15 0/17]
r 1.000763797 _17_ MAC  --- 0 ARP 28 [0 ffffffff f 806] ------- [REQUEST 15/15 0/17]
s 1.000938797 _17_ MAC  --- 0 RTS 44 [52e f 11 0] 
r 1.001291595 _15_ MAC  --- 0 RTS 44 [52e f 11 0] 
s 1.001301595 _15_ MAC  --- 0 CTS 38 [3f4 11 0 0] 
r 1.001606392 _17_ MAC  --- 0 CTS 38 [3f4 11 0 0] 
s 1.001616392 _17_ MAC  --- 0 ARP 86 [13a f 11 806] ------- [REPLY 17/17 15/15]
r 1.002305189 _15_ MAC  --- 0 ARP 28 [13a f 11 806] ------- [REPLY 17/17 15/15]
s 1.002315189 _15_ MAC  --- 0 ACK 38 [0 11 0 0] 
r 1.002619987 _17_ MAC  --- 0 ACK 38 [0 11 0 0] 
s 1.002789189 _15_ MAC  --- 0 RTS 44 [242e 11 f 0] 
r 1.003141987 _17_ MAC  --- 0 RTS 44 [242e 11 f 0] 
s 1.003151987 _17_ MAC  --- 0 CTS 38 [22f4 f 0 0] 
r 1.003456784 _15_ MAC  --- 0 CTS 38 [22f4 f 0 0] 
s 1.003466784 _15_ MAC  --- 19 cbr 1078 [13a 11 f 800] ------- [15:0 17:1 32 17] [0] 0 0
s 1.008000000 _4_ AGT  --- 22 cbr 1000 [0 0 0 0] ------- [4:0 1:2 32 0] [1] 0 0
r 1.008000000 _4_ RTR  --- 22 cbr 1000 [0 0 0 0] ------- [4:0 1:2 32 0] [1] 0 0
s 1.008000000 _5_ AGT  --- 23 cbr 1000 [0 0 0 0] ------- [5:0 1:1 32 0] [1] 0 0
r 1.008000000 _5_ RTR  --- 23 cbr 1000 [0 0 0 0] ------- [5:0 1:1 32 0] [1] 0 0
s 1.008000000 _6_ AGT  --- 24 cbr 1000 [0 0 0 0] ------- [6:0 1:0 32 0] [1] 0 0
r 1.008000000 _6_ RTR  --- 24 cbr 1000 [0 0 0 0] ------- [6:0 1:0 32 0] [1] 0 0
s 1.008000000 _7_ AGT  --- 25 cbr 1000 [0 0 0 0] ------- [7:0 1:4 32 0] [1] 0 0
r 1.008000000 _7_ RTR  --- 25 cbr 1000 [0 0 0 0] ------- [7:0 1:4 32 0] [1] 0 0
s 1.008000000 _1_ AGT  --- 26 cbr 1000 [0 0 0 0] ------- [1:5 14:0 32 0] [1] 0 0
r 1.008000000 _1_ RTR  --- 26 cbr 1000 [0 0 0 0] ------- [1:5 14:0 32 0] [1] 0 0
s 1.008000000 _2_ AGT  --- 27 cbr 1000 [0 0 0 0] ------- [2:0 1:6 32 0] [1] 0 0
r 1.008000000 _2_ RTR  --- 27 cbr 1000 [0 0 0 0] ------- [2:0 1:6 32 0] [1] 0 0
s 1.008000000 _14_ AGT  --- 28 cbr 1000 [0 0 0 0] ------- [14:1 16:0 32 0] [1] 0 0
r 1.008000000 _14_ RTR  --- 28 cbr 1000 [0 0 0 0] ------- [14:1 16:0 32 0] [1] 0 0
s 1.008000000 _17_ AGT  --- 29 cbr 1000 [0 0 0 0] ------- [17:0 16:1 32 0] [1] 0 0
r 1.008000000 _17_ RTR  --- 29 cbr 1000 [0 0 0 0] ------- [17:0 16:1 32 0] [1] 0 0
s 1.008000000 _15_ AGT  --- 30 cbr 1000 [0 0 0 0] ------- [15:0 17:1 32 0] [1] 0 0
r 1.008000000 _15_ RTR  --- 30 cbr 1000 [0 0 0 0] ------- [15:0 17:1 32 0] [1] 0 0
s 1.008000000 _15_ RTR  --- 30 cbr 1020 [0 0 0 0] ------- [15:0 17:1 32 17] [1] 0 0
s 1.008000000 _9_ AGT  --- 31 cbr 1000 [0 0 0 0] ------- [9:0 15:1 32 0] [1] 0 0
r 1.008000000 _9_ RTR  --- 31 cbr 1000 [0 0 0 0] ------- [9:0 15:1 32 0] [1] 0 0
s 1.008000000 _9_ RTR  --- 31 cbr 1020 [0 0 0 0] ------- [9:0 15:1 32 15] [1] 0 0
s 1.008000000 _10_ AGT  --- 32 cbr 1000 [0 0 0 0] ------- [10:0 9:1 32 0] [1] 0 0
r 1.008000000 _10_ RTR  --- 32 cbr 1000 [0 0 0 0] ------- [10:0 9:1 32 0] [1] 0 0
r 1.012091582 _17_ MAC  --- 19 cbr 1020 [13a 11 f 800] ------- [15:0 17:1 32 17] [0] 1 0
s 1.012101582 _17_ MAC  --- 0 ACK 38 [0 f 0 0] 
r 1.012116582 _17_ AGT  --- 19 cbr 1020 [13a 11 f 800] ------- [15:0 17:1 32 17] [0] 1 0
r 1.012406379 _15_ MAC  --- 0 ACK 38 [0 f 0 0] 
s 1.012496379 _15_ MAC  --- 0 RTS 44 [242e 11 f 0] 
r 1.012849176 _17_ MAC  --- 0 RTS 44 [242e 11 f 0] 
s 1.012859176 _17_ MAC  --- 0 CTS 38 [22f4 f 0 0] 
r 1.013163974 _15_ MAC  --- 0 CTS 38 [22f4 f 0 0] 
s 1.013173974 _15_ MAC  --- 30 cbr 1078 [13a 11 f 800] ------- [15:0 17:1 32 17] [1] 0 0
s 1.016000000 _4_ AGT  --- 33 cbr 1000 [0 0 0 0] ------- [4:0 1:2 32 0] [2] 0 0
r 1.016000000 _4_ RTR  --- 33 cbr 1000 [0 0 0 0] ------- [4:0 1:2 32 0] [2] 0 0
s 1.016000000 _5_ AGT  --- 34 cbr 1000 [0 0 0 0] ------- [5:0 1:1 32 0] [2] 0 0
r 1.016000000 _5_ RTR  --- 34 cbr 1000 [0 0 0 0] ------- [5:0 1:1 32 0] [2] 0 0
s 1.016000000 _6_ AGT  --- 35 cbr 1000 [0 0 0 0] ------- [6:0 1:0 32 0] [2] 0 0
r 1.016000000 _6_ RTR  --- 35 cbr 1000 [0 0 0 0] ------- [6:0 1:0 32 0] [2] 0 0
s 1.016000000 _7_ AGT  --- 36 cbr 1000 [0 0 0 0] ------- [7:0 1:4 32 0] [2] 0 0
r 1.016000000 _7_ RTR  --- 36 cbr 1000 [0 0 0 0] ------- [7:0 1:4 32 0] [2] 0 0
s 1.016000000 _1_ AGT  --- 37 cbr 1000 [0 0 0 0] ------- [1:5 14:0 32 0] [2] 0 0
r 1.016000000 _1_ RTR  --- 37 cbr 1000 [0 0 0 0] ------- [1:5 14:0 32 0] [2] 0 0
s 1.016000000 _2_ AGT  --- 38 cbr 1000 [0 0 0 0] ------- [2:0 1:6 32 0] [2] 0 0
r 1.016000000 _2_ RTR  --- 38 cbr 1000 [0 0 0 0] ------- [2:0 1:6 32 0] [2] 0 0
s 1.016000000 _14_ AGT  --- 39 cbr 1000 [0 0 0 0] ------- [14:1 16:0 32 0] [2] 0 0
r 1.016000000 _14_ RTR  --- 39 cbr 1000 [0 0 0 0] ------- [14:1 16:0 32 0] [2] 0 0
s 1.016000000 _17_ AGT  --- 40 cbr 1000 [0 0 0 0] ------- [17:0 16:1 32 0] [2] 0 0
r 1.016000000 _17_ RTR  --- 40 cbr 1000 [0 0 0 0] ------- [17:0 16:1 32 0] [2] 0 0
s 1.016000000 _15_ AGT  --- 41 cbr 1000 [0 0 0 0] ------- [15:0 17:1 32 0] [2] 0 0
r 1.016000000 _15_ RTR  --- 41 cbr 1000 [0 0 0 0] ------- [15:0 17:1 32 0] [2] 0 0
s 1.016000000 _15_ RTR  --- 41 cbr 1020 [0 0 0 0] ------- [15:0 17:1 32 17] [2] 0 0
s 1.016000000 _9_ AGT  --- 42 cbr 1000 [0 0 0 0] ------- [9:0 15:1 32 0] [2] 0 0
r 1.016000000 _9_ RTR  --- 42 cbr 1000 [0 0 0 0] ------- [9:0 15:1 32 0] [2] 0 0
s 1.016000000 _9_ RTR  --- 42 cbr 1020 [0 0 0 0] ------- [9:0 15:1 32 15] [2] 0 0
s 1.016000000 _10_ AGT  --- 43 cbr 1000 [0 0 0 0] ------- [10:0 9:1 32 0] [2] 0 0
r 1.016000000 _10_ RTR  --- 43 cbr 1000 [0 0 0 0] ------- [10:0 9:1 32 0] [2] 0 0
r 1.021798771 _17_ MAC  --- 30 cbr 1020 [13a 11 f 800] ------- [15:0 17:1 32 17] [1] 1 0
s 1.021808771 _17_ MAC  --- 0 ACK 38 [0 f 0 0] 
r 1.021823771 _17_ AGT  --- 30 cbr 1020 [13a 11 f 800] ------- [15:0 17:1 32 17] [1] 1 0
r 1.022113568 _15_ MAC  --- 0 ACK 38 [0 f 0 0] 
s 1.022623568 _15_ MAC  --- 0 RTS 44 [242e 11 f 0] 
r 1.022976366 _17_ MAC  --- 0 RTS 44 [242e 11 f 0] 
s 1.022986366 _17_ MAC  --- 0 CTS 38 [22f4 f 0 0] 
r 1.023291163 _15_ MAC  --- 0 CTS 38 [22f4 f 0 0] 
s 1.023301163 _15_ MAC  --- 41 cbr 1078 [13a 11 f 800] ------- [15:0 17:1 32 17] [2] 0 0
s 1.024000000 _4_ AGT  --- 44 cbr 1000 [0 0 0 0] ------- [4:0 1:2 32 0] [3] 0 0
r 1.024000000 _4_ RTR  --- 44 cbr 1000 [0 0 0 0] ------- [4:0 1:2 32 0] [3] 0 0
s 1.024000000 _5_ AGT  --- 45 cbr 1000 [0 0 0 0] ------- [5:0 1:1 32 0] [3] 0 0
r 1.024000000 _5_ RTR  --- 45 cbr 1000 [0 0 0 0] ------- [5:0 1:1 32 0] [3] 0 0
s 1.024000000 _6_ AGT  --- 46 cbr 1000 [0 0 0 0] ------- [6:0 1:0 32 0] [3] 0 0
r 1.024000000 _6_ RTR  --- 46 cbr 1000 [0 0 0 0] ------- [6:0 1:0 32 0] [3] 0 0
s 1.024000000 _7_ AGT  --- 47 cbr 1000 [0 0 0 0] ------- [7:0 1:4 32 0] [3] 0 0
r 1.024000000 _7_ RTR  --- 47 cbr 1000 [0 0 0 0] ------- [7:0 1:4 32 0] [3] 0 0
s 1.024000000 _1_ AGT  --- 48 cbr 1000 [0 0 0 0] ------- [1:5 14:0 32 0] [3] 0 0
r 1.024000000 _1_ RTR  --- 48 cbr 1000 [0 0 0 0] ------- [1:5 14:0 32 0] [3] 0 0
s 1.024000000 _2_ AGT  --- 49 cbr 1000 [0 0 0 0] ------- [2:0 1:6 32 0] [3] 0 0
r 1.024000000 _2_ RTR  --- 49 cbr 1000 [0 0 0 0] ------- [2:0 1:6 32 0] [3] 0 0
s 1.024000000 _14_ AGT  --- 50 cbr 1000 [0 0 0 0] ------- [14:1 16:0 32 0] [3] 0 0
r 1.024000000 _14_ RTR  --- 50 cbr 1000 [0 0 0 0] ------- [14:1 16:0 32 0] [3] 0 0
s 1.024000000 _17_ AGT  --- 51 cbr 1000 [0 0 0 0] ------- [17:0 16:1 32 0] [3] 0 0
r 1.024000000 _17_ RTR  --- 51 cbr 1000 [0 0 0 0] ------- [17:0 16:1 32 0] [3] 0 0
s 1.024000000 _15_ AGT  --- 52 cbr 1000 [0 0 0 0] ------- [15:0 17:1 32 0] [3] 0 0
r 1.024000000 _15_ RTR  --- 52 cbr 1000 [0 0 0 0] ------- [15:0 17:1 32 0] [3] 0 0
s 1.024000000 _15_ RTR  --- 52 cbr 1020 [0 0 0 0] ------- [15:0 17:1 32 17] [3] 0 0
s 1.024000000 _9_ AGT  --- 53 cbr 1000 [0 0 0 0] ------- [9:0 15:1 32 0] [3] 0 0
r 1.024000000 _9_ RTR  --- 53 cbr 1000 [0 0 0 0] ------- [9:0 15:1 32 0] [3] 0 0
s 1.024000000 _9_ RTR  --- 53 cbr 1020 [0 0 0 0] ------- [9:0 15:1 32 15] [3] 0 0
s 1.024000000 _10_ AGT  --- 54 cbr 1000 [0 0 0 0] ------- [10:0 9:1 32 0] [3] 0 0
r 1.024000000 _10_ RTR  --- 54 cbr 1000 [0 0 0 0] ------- [10:0 9:1 32 0] [3] 0 0
r 1.031925960 _17_ MAC  --- 41 cbr 1020 [13a 11 f 800] ------- [15:0 17:1 32 17] [2] 1 0
s 1.031935960 _17_ MAC  --- 0 ACK 38 [0 f 0 0] 
r 1.031950960 _17_ AGT  --- 41 cbr 1020 [13a 11 f 800] ------- [15:0 17:1 32 17] [2] 1 0
s 1.032000000 _4_ AGT  --- 55 cbr 1000 [0 0 0 0] ------- [4:0 1:2 32 0] [4] 0 0
r 1.032000000 _4_ RTR  --- 55 cbr 1000 [0 0 0 0] ------- [4:0 1:2 32 0] [4] 0 0
s 1.032000000 _5_ AGT  --- 56 cbr 1000 [0 0 0 0] ------- [5:0 1:1 32 0] [4] 0 0
r 1.032000000 _5_ RTR  --- 56 cbr 1000 [0 0 0 0] ------- [5:0 1:1 32 0] [4] 0 0
s 1.032000000 _6_ AGT  --- 57 cbr 1000 [0 0 0 0] ------- [6:0 1:0 32 0] [4] 0 0
r 1.032000000 _6_ RTR  --- 57 cbr 1000 [0 0 0 0] ------- [6:0 1:0 32 0] [4] 0 0
s 1.032000000 _7_ AGT  --- 58 cbr 1000 [0 0 0 0] ------- [7:0 1:4 32 0] [4] 0 0
r 1.032000000 _7_ RTR  --- 58 cbr 1000 [0 0 0 0] ------- [7:0 1:4 32 0] [4] 0 0
s 1.032000000 _1_ AGT  --- 59 cbr 1000 [0 0 0 0] ------- [1:5 14:0 32 0] [4] 0 0
r 1.032000000 _1_ RTR  --- 59 cbr 1000 [0 0 0 0] ------- [1:5 14:0 32 0] [4] 0 0
s 1.032000000 _2_ AGT  --- 60 cbr 1000 [0 0 0 0] ------- [2:0 1:6 32 0] [4] 0 0
r 1.032000000 _2_ RTR  --- 60 cbr 1000 [0 0 0 0] ------- [2:0 1:6 32 0] [4] 0 0
s 1.032000000 _14_ AGT  --- 61 cbr 1000 [0 0 0 0] ------- [14:1 16:0 32 0] [4] 0 0
r 1.032000000 _14_ RTR  --- 61 cbr 1000 [0 0 0 0] ------- [14:1 16:0 32 0] [4] 0 0
s 1.032000000 _17_ AGT  --- 62 cbr 1000 [0 0 0 0] ------- [17:0 16:1 32 0] [4] 0 0
r 1.032000000 _17_ RTR  --- 62 cbr 1000 [0 0 0 0] ------- [17:0 16:1 32 0] [4] 0 0
s 1.032000000 _15_ AGT  --- 63 cbr 1000 [0 0 0 0] ------- [15:0 17:1 32 0] [4] 0 0
r 1.032000000 _15_ RTR  --- 63 cbr 1000 [0 0 0 0] ------- [15:0 17:1 32 0] [4] 0 0
s 1.032000000 _15_ RTR  --- 63 cbr 1020 [0 0 0 0] ------- [15:0 17:1 32 17] [4] 0 0
s 1.032000000 _9_ AGT  --- 64 cbr 1000 [0 0 0 0] ------- [9:0 15:1 32 0] [4] 0 0
r 1.032000000 _9_ RTR  --- 64 cbr 1000 [0 0 0 0] ------- [9:0 15:1 32 0] [4] 0 0
s 1.032000000 _9_ RTR  --- 64 cbr 1020 [0 0 0 0] ------- [9:0 15:1 32 15] [4] 0 0
s 1.032000000 _10_ AGT  --- 65 cbr 1000 [0 0 0 0] ------- [10:0 9:1 32 0] [4] 0 0
r 1.032000000 _10_ RTR  --- 65 cbr 1000 [0 0 0 0] ------- [10:0 9:1 32 0] [4] 0 0
r 1.032240758 _15_ MAC  --- 0 ACK 38 [0 f 0 0] 
s 1.032410758 _15_ MAC  --- 0 RTS 44 [242e 11 f 0] 
r 1.032763555 _17_ MAC  --- 0 RTS 44 [242e 11 f 0] 
s 1.032773555 _17_ MAC  --- 0 CTS 38 [22f4 f 0 0] 
r 1.033078353 _15_ MAC  --- 0 CTS 38 [22f4 f 0 0] 
s 1.033088353 _15_ MAC  --- 52 cbr 1078 [13a 11 f 800] ------- [15:0 17:1 32 17] [3] 0 0
s 1.040000000 _4_ AGT  --- 66 cbr 1000 [0 0 0 0] ------- [4:0 1:2 32 0] [5] 0 0
r 1.040000000 _4_ RTR  --- 66 cbr 1000 [0 0 0 0] ------- [4:0 1:2 32 0] [5] 0 0
D 1.040000000 _4_ RTR  IFQ 11 cbr 1020 [0 0 0 0] ------- [4:0 1:2 32 0] [0] 0 0
s 1.040000000 _5_ AGT  --- 67 cbr 1000 [0 0 0 0] ------- [5:0 1:1 32 0] [5] 0 0
r 1.040000000 _5_ RTR  --- 67 cbr 1000 [0 0 0 0] ------- [5:0 1:1 32 0] [5] 0 0
D 1.040000000 _5_ RTR  IFQ 12 cbr 1020 [0 0 0 0] ------- [5:0 1:1 32 0] [0] 0 0
s 1.040000000 _6_ AGT  --- 68 cbr 1000 [0 0 0 0] ------- [6:0 1:0 32 0] [5] 0 0
r 1.040000000 _6_ RTR  --- 68 cbr 1000 [0 0 0 0] ------- [6:0 1:0 32 0] [5] 0 0
D 1.040000000 _6_ RTR  IFQ 13 cbr 1020 [0 0 0 0] ------- [6:0 1:0 32 0] [0] 0 0
s 1.040000000 _7_ AGT  --- 69 cbr 1000 [0 0 0 0] ------- [7:0 1:4 32 0] [5] 0 0
r 1.040000000 _7_ RTR  --- 69 cbr 1000 [0 0 0 0] ------- [7:0 1:4 32 0] [5] 0 0
D 1.040000000 _7_ RTR  IFQ 14 cbr 1020 [0 0 0 0] ------- [7:0 1:4 32 0] [0] 0 0
s 1.040000000 _1_ AGT  --- 70 cbr 1000 [0 0 0 0] ------- [1:5 14:0 32 0] [5] 0 0
r 1.040000000 _1_ RTR  --- 70 cbr 1000 [0 0 0 0] ------- [1:5 14:0 32 0] [5] 0 0
D 1.040000000 _1_ RTR  IFQ 15 cbr 1020 [0 0 0 0] ------- [1:5 14:0 32 0] [0] 0 0
s 1.040000000 _2_ AGT  --- 71 cbr 1000 [0 0 0 0] ------- [2:0 1:6 32 0] [5] 0 0
r 1.040000000 _2_ RTR  --- 71 cbr 1000 [0 0 0 0] ------- [2:0 1:6 32 0] [5] 0 0
D 1.040000000 _2_ RTR  IFQ 16 cbr 1020 [0 0 0 0] ------- [2:0 1:6 32 0] [0] 0 0
s 1.040000000 _14_ AGT  --- 72 cbr 1000 [0 0 0 0] ------- [14:1 16:0 32 0] [5] 0 0
r 1.040000000 _14_ RTR  --- 72 cbr 1000 [0 0 0 0] ------- [14:1 16:0 32 0] [5] 0 0
D 1.040000000 _14_ RTR  IFQ 17 cbr 1020 [0 0 0 0] ------- [14:1 16:0 32 0] [0] 0 0
s 1.040000000 _17_ AGT  --- 73 cbr 1000 [0 0 0 0] ------- [17:0 16:1 32 0] [5] 0 0
r 1.040000000 _17_ RTR  --- 73 cbr 1000 [0 0 0 0] ------- [17:0 16:1 32 0] [5] 0 0
D 1.040000000 _17_ RTR  IFQ 18 cbr 1020 [0 0 0 0] ------- [17:0 16:1 32 0] [0] 0 0
s 1.040000000 _15_ AGT  --- 74 cbr 1000 [0 0 0 0] ------- [15:0 17:1 32 0] [5] 0 0
r 1.040000000 _15_ RTR  --- 74 cbr 1000 [0 0 0 0] ------- [15:0 17:1 32 0] [5] 0 0
s 1.040000000 _15_ RTR  --- 74 cbr 1020 [0 0 0 0] ------- [15:0 17:1 32 17] [5] 0 0
s 1.040000000 _9_ AGT  --- 75 cbr 1000 [0 0 0 0] ------- [9:0 15:1 32 0] [5] 0 0
r 1.040000000 _9_ RTR  --- 75 cbr 1000 [0 0 0 0] ------- [9:0 15:1 32 0] [5] 0 0
s 1.040000000 _9_ RTR  --- 75 cbr 1020 [0 0 0 0] ------- [9:0 15:1 32 15] [5] 0 0
s 1.040000000 _10_ AGT  --- 76 cbr 1000 [0 0 0 0] ------- [10:0 9:1 32 0] [5] 0 0
r 1.040000000 _10_ RTR  --- 76 cbr 1000 [0 0 0 0] ------- [10:0 9:1 32 0] [5] 0 0
D 1.040000000 _10_ RTR  IFQ 21 cbr 1020 [0 0 0 0] ------- [10:0 9:1 32 0] [0] 0 0
r 1.041713150 _17_ MAC  --- 52 cbr 1020 [13a 11 f 800] ------- [15:0 17:1 32 17] [3] 1 0
s 1.041723150 _17_ MAC  --- 0 ACK 38 [0 f 0 0] 
r 1.041738150 _17_ AGT  --- 52 cbr 1020 [13a 11 f 800] ------- [15:0 17:1 32 17] [3] 1 0
r 1.042027947 _15_ MAC  --- 0 ACK 38 [0 f 0 0] 
s 1.042277947 _15_ MAC  --- 0 RTS 44 [242e 11 f 0] 
r 1.042630745 _17_ MAC  --- 0 RTS 44 [242e 11 f 0] 
s 1.042640745 _17_ MAC  --- 0 CTS 38 [22f4 f 0 0] 
r 1.042945542 _15_ MAC  --- 0 CTS 38 [22f4 f 0 0] 
s 1.042955542 _15_ MAC  --- 63 cbr 1078 [13a 11 f 800] ------- [15:0 17:1 32 17] [4] 0 0
s 1.048000000 _4_ AGT  --- 77 cbr 1000 [0 0 0 0] ------- [4:0 1:2 32 0] [6] 0 0
r 1.048000000 _4_ RTR  --- 77 cbr 1000 [0 0 0 0] ------- [4:0 1:2 32 0] [6] 0 0
D 1.048000000 _4_ RTR  IFQ 22 cbr 1020 [0 0 0 0] ------- [4:0 1:2 32 0] [1] 0 0
s 1.048000000 _5_ AGT  --- 78 cbr 1000 [0 0 0 0] ------- [5:0 1:1 32 0] [6] 0 0
r 1.048000000 _5_ RTR  --- 78 cbr 1000 [0 0 0 0] ------- [5:0 1:1 32 0] [6] 0 0
D 1.048000000 _5_ RTR  IFQ 23 cbr 1020 [0 0 0 0] ------- [5:0 1:1 32 0] [1] 0 0
s 1.048000000 _6_ AGT  --- 79 cbr 1000 [0 0 0 0] ------- [6:0 1:0 32 0] [6] 0 0
r 1.048000000 _6_ RTR  --- 79 cbr 1000 [0 0 0 0] ------- [6:0 1:0 32 0] [6] 0 0
D 1.048000000 _6_ RTR  IFQ 24 cbr 1020 [0 0 0 0] ------- [6:0 1:0 32 0] [1] 0 0
s 1.048000000 _7_ AGT  --- 80 cbr 1000 [0 0 0 0] ------- [7:0 1:4 32 0] [6] 0 0
r 1.048000000 _7_ RTR  --- 80 cbr 1000 [0 0 0 0] ------- [7:0 1:4 32 0] [6] 0 0
D 1.048000000 _7_ RTR  IFQ 25 cbr 1020 [0 0 0 0] ------- [7:0 1:4 32 0] [1] 0 0
s 1.048000000 _1_ AGT  --- 81 cbr 1000 [0 0 0 0] ------- [1:5 14:0 32 0] [6] 0 0
r 1.048000000 _1_ RTR  --- 81 cbr 1000 [0 0 0 0] ------- [1:5 14:0 32 0] [6] 0 0
D 1.048000000 _1_ RTR  IFQ 26 cbr 1020 [0 0 0 0] ------- [1:5 14:0 32 0] [1] 0 0
s 1.048000000 _2_ AGT  --- 82 cbr 1000 [0 0 0 0] ------- [2:0 1:6 32 0] [6] 0 0
r 1.048000000 _2_ RTR  --- 82 cbr 1000 [0 0 0 0] ------- [2:0 1:6 32 0] [6] 0 0
D 1.048000000 _2_ RTR  IFQ 27 cbr 1020 [0 0 0 0] ------- [2:0 1:6 32 0] [1] 0 0
s 1.048000000 _14_ AGT  --- 83 cbr 1000 [0 0 0 0] ------- [14:1 16:0 32 0] [6] 0 0
r 1.048000000 _14_ RTR  --- 83 cbr 1000 [0 0 0 0] ------- [14:1 16:0 32 0] [6] 0 0
D 1.048000000 _14_ RTR  IFQ 28 cbr 1020 [0 0 0 0] ------- [14:1 16:0 32 0] [1] 0 0
s 1.048000000 _17_ AGT  --- 84 cbr 1000 [0 0 0 0] ------- [17:0 16:1 32 0] [6] 0 0
r 1.048000000 _17_ RTR  --- 84 cbr 1000 [0 0 0 0] ------- [17:0 16:1 32 0] [6] 0 0
D 1.048000000 _17_ RTR  IFQ 29 cbr 1020 [0 0 0 0] ------- [17:0 16:1 32 0] [1] 0 0
s 1.048000000 _15_ AGT  --- 85 cbr 1000 [0 0 0 0] ------- [15:0 17:1 32 0] [6] 0 0
r 1.048000000 _15_ RTR  --- 85 cbr 1000 [0 0 0 0] ------- [15:0 17:1 32 0] [6] 0 0
s 1.048000000 _15_ RTR  --- 85 cbr 1020 [0 0 0 0] ------- [15:0 17:1 32 17] [6] 0 0
s 1.048000000 _9_ AGT  --- 86 cbr 1000 [0 0 0 0] ------- [9:0 15:1 32 0] [6] 0 0
r 1.048000000 _9_ RTR  --- 86 cbr 1000 [0 0 0 0] ------- [9:0 15:1 32 0] [6] 0 0
s 1.048000000 _9_ RTR  --- 86 cbr 1020 [0 0 0 0] ------- [9:0 15:1 32 15] [6] 0 0
s 1.048000000 _10_ AGT  --- 87 cbr 1000 [0 0 0 0] ------- [10:0 9:1 32 0] [6] 0 0
r 1.048000000 _10_ RTR  --- 87 cbr 1000 [0 0 0 0] ------- [10:0 9:1 32 0] [6] 0 0
D 1.048000000 _10_ RTR  IFQ 32 cbr 1020 [0 0 0 0] ------- [10:0 9:1 32 0] [1] 0 0
r 1.051580339 _17_ MAC  --- 63 cbr 1020 [13a 11 f 800] ------- [15:0 17:1 32 17] [4] 1 0
s 1.051590339 _17_ MAC  --- 0 ACK 38 [0 f 0 0] 
r 1.051605339 _17_ AGT  --- 63 cbr 1020 [13a 11 f 800] ------- [15:0 17:1 32 17] [4] 1 0
r 1.051895137 _15_ MAC  --- 0 ACK 38 [0 f 0 0] 
s 1.052045137 _15_ MAC  --- 0 RTS 44 [242e 11 f 0] 
r 1.052397934 _17_ MAC  --- 0 RTS 44 [242e 11 f 0] 
s 1.052407934 _17_ MAC  --- 0 CTS 38 [22f4 f 0 0] 
r 1.052712731 _15_ MAC  --- 0 CTS 38 [22f4 f 0 0] 
s 1.052722731 _15_ MAC  --- 74 cbr 1078 [13a 11 f 800] ------- [15:0 17:1 32 17] [5] 0 0
s 1.056000000 _4_ AGT  --- 88 cbr 1000 [0 0 0 0] ------- [4:0 1:2 32 0] [7] 0 0
r 1.056000000 _4_ RTR  --- 88 cbr 1000 [0 0 0 0] ------- [4:0 1:2 32 0] [7] 0 0
D 1.056000000 _4_ RTR  IFQ 33 cbr 1020 [0 0 0 0] ------- [4:0 1:2 32 0] [2] 0 0
s 1.056000000 _5_ AGT  --- 89 cbr 1000 [0 0 0 0] ------- [5:0 1:1 32 0] [7] 0 0
r 1.056000000 _5_ RTR  --- 89 cbr 1000 [0 0 0 0] ------- [5:0 1:1 32 0] [7] 0 0
D 1.056000000 _5_ RTR  IFQ 34 cbr 1020 [0 0 0 0] ------- [5:0 1:1 32 0] [2] 0 0
s 1.056000000 _6_ AGT  --- 90 cbr 1000 [0 0 0 0] ------- [6:0 1:0 32 0] [7] 0 0
r 1.056000000 _6_ RTR  --- 90 cbr 1000 [0 0 0 0] ------- [6:0 1:0 32 0] [7] 0 0
D 1.056000000 _6_ RTR  IFQ 35 cbr 1020 [0 0 0 0] ------- [6:0 1:0 32 0] [2] 0 0
s 1.056000000 _7_ AGT  --- 91 cbr 1000 [0 0 0 0] ------- [7:0 1:4 32 0] [7] 0 0
r 1.056000000 _7_ RTR  --- 91 cbr 1000 [0 0 0 0] ------- [7:0 1:4 32 0] [7] 0 0
D 1.056000000 _7_ RTR  IFQ 36 cbr 1020 [0 0 0 0] ------- [7:0 1:4 32 0] [2] 0 0
s 1.056000000 _1_ AGT  --- 92 cbr 1000 [0 0 0 0] ------- [1:5 14:0 32 0] [7] 0 0
r 1.056000000 _1_ RTR  --- 92 cbr 1000 [0 0 0 0] ------- [1:5 14:0 32 0] [7] 0 0
D 1.056000000 _1_ RTR  IFQ 37 cbr 1020 [0 0 0 0] ------- [1:5 14:0 32 0] [2] 0 0
s 1.056000000 _2_ AGT  --- 93 cbr 1000 [0 0 0 0] ------- [2:0 1:6 32 0] [7] 0 0
r 1.056000000 _2_ RTR  --- 93 cbr 1000 [0 0 0 0] ------- [2:0 1:6 32 0] [7] 0 0
D 1.056000000 _2_ RTR  IFQ 38 cbr 1020 [0 0 0 0] ------- [2:0 1:6 32 0] [2] 0 0
s 1.056000000 _14_ AGT  --- 94 cbr 1000 [0 0 0 0] ------- [14:1 16:0 32 0] [7] 0 0
r 1.056000000 _14_ RTR  --- 94 cbr 1000 [0 0 0 0] ------- [14:1 16:0 32 0] [7] 0 0
D 1.056000000 _14_ RTR  IFQ 39 cbr 1020 [0 0 0 0] ------- [14:1 16:0 32 0] [2] 0 0
s 1.056000000 _17_ AGT  --- 95 cbr 1000 [0 0 0 0] ------- [17:0 16:1 32 0] [7] 0 0
r 1.056000000 _17_ RTR  --- 95 cbr 1000 [0 0 0 0] ------- [17:0 16:1 32 0] [7] 0 0
D 1.056000000 _17_ RTR  IFQ 40 cbr 1020 [0 0 0 0] ------- [17:0 16:1 32 0] [2] 0 0
s 1.056000000 _15_ AGT  --- 96 cbr 1000 [0 0 0 0] ------- [15:0 17:1 32 0] [7] 0 0
r 1.056000000 _15_ RTR  --- 96 cbr 1000 [0 0 0 0] ------- [15:0 17:1 32 0] [7] 0 0
s 1.056000000 _15_ RTR  --- 96 cbr 1020 [0 0 0 0] ------- [15:0 17:1 32 17] [7] 0 0
s 1.056000000 _9_ AGT  --- 97 cbr 1000 [0 0 0 0] ------- [9:0 15:1 32 0] [7] 0 0
r 1.056000000 _9_ RTR  --- 97 cbr 1000 [0 0 0 0] ------- [9:0 15:1 32 0] [7] 0 0
s 1.056000000 _9_ RTR  --- 97 cbr 1020 [0 0 0 0] ------- [9:0 15:1 32 15] [7] 0 0
s 1.056000000 _10_ AGT  --- 98 cbr 1000 [0 0 0 0] ------- [10:0 9:1 32 0] [7] 0 0
r 1.056000000 _10_ RTR  --- 98 cbr 1000 [0 0 0 0] ------- [10:0 9:1 32 0] [7] 0 0
D 1.056000000 _10_ RTR  IFQ 43 cbr 1020 [0 0 0 0] ------- [10:0 9:1 32 0] [2] 0 0
r 1.061347529 _17_ MAC  --- 74 cbr 1020 [13a 11 f 800] ------- [15:0 17:1 32 17] [5] 1 0
s 1.061357529 _17_ MAC  --- 0 ACK 38 [0 f 0 0] 
r 1.061372529 _17_ AGT  --- 74 cbr 1020 [13a 11 f 800] ------- [15:0 17:1 32 17] [5] 1 0
r 1.061662326 _15_ MAC  --- 0 ACK 38 [0 f 0 0] 
s 1.061792326 _15_ MAC  --- 0 RTS 44 [242e 11 f 0] 
r 1.062145124 _17_ MAC  --- 0 RTS 44 [242e 11 f 0] 
s 1.062155124 _17_ MAC  --- 0 CTS 38 [22f4 f 0 0] 
r 1.062459921 _15_ MAC  --- 0 CTS 38 [22f4 f 0 0] 
s 1.062469921 _15_ MAC  --- 85 cbr 1078 [13a 11 f 800] ------- [15:0 17:1 32 17] [6] 0 0
s 1.064000000 _4_ AGT  --- 99 cbr 1000 [0 0 0 0] ------- [4:0 1:2 32 0] [8] 0 0
r 1.064000000 _4_ RTR  --- 99 cbr 1000 [0 0 0 0] ------- [4:0 1:2 32 0] [8] 0 0
D 1.064000000 _4_ RTR  IFQ 44 cbr 1020 [0 0 0 0] ------- [4:0 1:2 32 0] [3] 0 0
s 1.064000000 _5_ AGT  --- 100 cbr 1000 [0 0 0 0] ------- [5:0 1:1 32 0] [8] 0 0
r 1.064000000 _5_ RTR  --- 100 cbr 1000 [0 0 0 0] ------- [5:0 1:1 32 0] [8] 0 0