n -t * -s 0  -x 440 -y 540 -Z 0 -z 20  -v circle -c black
n -t * -s 1  -x 640 -y 540 -Z 0 -z 20  -v circle -c black
n -t * -s 2  -x 840 -y 540 -Z 0 -z 20  -v circle -c black
n -t * -s 3  -x 1040 -y 540 -Z 0 -z 20  -v circle -c black
n -t * -s 4  -x 1240 -y 540 -Z 0 -z 20  -v circle -c black
n -t * -s 5  -x 440 -y 340 -Z 0 -z 20  -v circle -c black
n -t * -s 6  -x 640 -y 340 -Z 0 -z 20  -v circle -c black
n -t * -s 7  -x 840 -y 340 -Z 0 -z 20  -v circle -c black
n -t * -s 8  -x 1040 -y 340 -Z 0 -z 20  -v circle -c black
n -t * -s 9  -x 1240 -y 340 -Z 0 -z 20  -v circle -c black
n -t * -s 10  -x 440 -y 140 -Z 0 -z 20  -v circle -c black
n -t * -s 11  -x 640 -y 140 -Z 0 -z 20  -v circle -c black
n -t * -s 12  -x 840 -y 140 -Z 0 -z 20  -v circle -c black
n -t * -s 13  -x 1040 -y 140 -Z 0 -z 20  -v circle -c black
n -t * -s 14  -x 1240 -y 140 -Z 0 -z 20  -v circle -c black
n -t * -s 15  -x 440 -y -60 -Z 0 -z 20  -v circle -c black
n -t * -s 16  -x 640 -y -60 -Z 0 -z 20  -v circle -c black
n -t * -s 17  -x 840 -y -60 -Z 0 -z 20  -v circle -c black
n -t * -s 18  -x 1040 -y -60 -Z 0 -z 20  -v circle -c black
n -t * -s 19  -x 1240 -y -60 -Z 0 -z 20  -v circle -c black
n -t * -s 20  -x 440 -y -260 -Z 0 -z 20  -v circle -c black
n -t * -s 21  -x 640 -y -260 -Z 0 -z 20  -v circle -c black
n -t * -s 22  -x 840 -y -260 -Z 0 -z 20  -v circle -c black
n -t * -s 23  -x 1040 -y -260 -Z 0 -z 20  -v circle -c black
n -t * -s 24  -x 1240 -y -260 -Z 0 -z 20  -v circle -c black
V -t * -v 1.0a5 -a 0
W -t * -x 1340 -y 640
A -t * -n 1 -p 0 -o 0x7fffffff -c 30 -a 1
A -t * -h 1 -m 1073741823 -s 0
+ -t 0.005340314 -s 0 -d -1 -p message -e 32 -c 2 -a 0 -i 0 -k RTR 
- -t 0.005340314 -s 0 -d -1 -p message -e 32 -c 2 -a 0 -i 0 -k RTR
h -t 0.005340314 -s 0 -d -1 -p message -e 32 -c 2 -a 0 -i 0 -k RTR
+ -t 0.005995314 -s 0 -d -1 -p message -e 90 -c 2 -a 0 -i 0 -k MAC 
- -t 0.005995314 -s 0 -d -1 -p message -e 90 -c 2 -a 0 -i 0 -k MAC
h -t 0.005995314 -s 0 -d -1 -p message -e 90 -c 2 -a 0 -i 0 -k MAC
r -t 0.006715980 -s 5 -d -1 -p message -e 32 -c 2 -a 0 -i 0 -k MAC
r -t 0.006715980 -s 1 -d -1 -p message -e 32 -c 2 -a 0 -i 0 -k MAC
r -t 0.006740980 -s 5 -d -1 -p message -e 32 -c 2 -a 0 -i 0 -k RTR
r -t 0.006740980 -s 1 -d -1 -p message -e 32 -c 2 -a 0 -i 0 -k RTR
+ -t 0.030580916 -s 2 -d -1 -p message -e 32 -c 2 -a 0 -i 1 -k RTR 
- -t 0.030580916 -s 2 -d -1 -p message -e 32 -c 2 -a 0 -i 1 -k RTR
h -t 0.030580916 -s 2 -d -1 -p message -e 32 -c 2 -a 0 -i 1 -k RTR
+ -t 0.030695916 -s 2 -d -1 -p message -e 90 -c 2 -a 0 -i 1 -k MAC 
- -t 0.030695916 -s 2 -d -1 -p message -e 90 -c 2 -a 0 -i 1 -k MAC
h -t 0.030695916 -s 2 -d -1 -p message -e 90 -c 2 -a 0 -i 1 -k MAC
r -t 0.031416583 -s 1 -d -1 -p message -e 32 -c 2 -a 0 -i 1 -k MAC
r -t 0.031416583 -s 7 -d -1 -p message -e 32 -c 2 -a 0 -i 1 -k MAC
r -t 0.031416583 -s 3 -d -1 -p message -e 32 -c 2 -a 0 -i 1 -k MAC
r -t 0.031441583 -s 1 -d -1 -p message -e 32 -c 2 -a 0 -i 1 -k RTR
r -t 0.031441583 -s 7 -d -1 -p message -e 32 -c 2 -a 0 -i 1 -k RTR
r -t 0.031441583 -s 3 -d -1 -p message -e 32 -c 2 -a 0 -i 1 -k RTR
+ -t 0.093211434 -s 13 -d -1 -p message -e 32 -c 2 -a 0 -i 2 -k RTR 
- -t 0.093211434 -s 13 -d -1 -p message -e 32 -c 2 -a 0 -i 2 -k RTR
h -t 0.093211434 -s 13 -d -1 -p message -e 32 -c 2 -a 0 -i 2 -k RTR
+ -t 0.093366434 -s 13 -d -1 -p message -e 90 -c 2 -a 0 -i 2 -k MAC 
- -t 0.093366434 -s 13 -d -1 -p message -e 90 -c 2 -a 0 -i 2 -k MAC
h -t 0.093366434 -s 13 -d -1 -p message -e 90 -c 2 -a 0 -i 2 -k MAC
r -t 0.094087101 -s 8 -d -1 -p message -e 32 -c 2 -a 0 -i 2 -k MAC
r -t 0.094087101 -s 12 -d -1 -p message -e 32 -c 2 -a 0 -i 2 -k MAC
r -t 0.094087101 -s 18 -d -1 -p message -e 32 -c 2 -a 0 -i 2 -k MAC
r -t 0.094087101 -s 14 -d -1 -p message -e 32 -c 2 -a 0 -i 2 -k MAC
r -t 0.094112101 -s 8 -d -1 -p message -e 32 -c 2 -a 0 -i 2 -k RTR
r -t 0.094112101 -s 12 -d -1 -p message -e 32 -c 2 -a 0 -i 2 -k RTR
r -t 0.094112101 -s 18 -d -1 -p message -e 32 -c 2 -a 0 -i 2 -k RTR
r -t 0.094112101 -s 14 -d -1 -p message -e 32 -c 2 -a 0 -i 2 -k RTR
+ -t 0.180287418 -s 3 -d -1 -p message -e 32 -c 2 -a 0 -i 3 -k RTR 
- -t 0.180287418 -s 3 -d -1 -p message -e 32 -c 2 -a 0 -i 3 -k RTR
h -t 0.180287418 -s 3 -d -1 -p message -e 32 -c 2 -a 0 -i 3 -k RTR
+ -t 0.180882418 -s 3 -d -1 -p message -e 90 -c 2 -a 0 -i 3 -k MAC 
- -t 0.180882418 -s 3 -d -1 -p message -e 90 -c 2 -a 0 -i 3 -k MAC
h -t 0.180882418 -s 3 -d -1 -p message -e 90 -c 2 -a 0 -i 3 -k MAC
r -t 0.181603085 -s 2 -d -1 -p message -e 32 -c 2 -a 0 -i 3 -k MAC
r -t 0.181603085 -s 8 -d -1 -p message -e 32 -c 2 -a 0 -i 3 -k MAC
r -t 0.181603085 -s 4 -d -1 -p message -e 32 -c 2 -a 0 -i 3 -k MAC
r -t 0.181628085 -s 2 -d -1 -p message -e 32 -c 2 -a 0 -i 3 -k RTR
r -t 0.181628085 -s 8 -d -1 -p message -e 32 -c 2 -a 0 -i 3 -k RTR
r -t 0.181628085 -s 4 -d -1 -p message -e 32 -c 2 -a 0 -i 3 -k RTR
+ -t 0.197191187 -s 19 -d -1 -p message -e 32 -c 2 -a 0 -i 4 -k RTR 
- -t 0.197191187 -s 19 -d -1 -p message -e 32 -c 2 -a 0 -i 4 -k RTR
h -t 0.197191187 -s 19 -d -1 -p message -e 32 -c 2 -a 0 -i 4 -k RTR
+ -t 0.197326187 -s 19 -d -1 -p message -e 90 -c 2 -a 0 -i 4 -k MAC 
- -t 0.197326187 -s 19 -d -1 -p message -e 90 -c 2 -a 0 -i 4 -k MAC
h -t 0.197326187 -s 19 -d -1 -p message -e 90 -c 2 -a 0 -i 4 -k MAC
r -t 0.198046854 -s 14 -d -1 -p message -e 32 -c 2 -a 0 -i 4 -k MAC
r -t 0.198046854 -s 18 -d -1 -p message -e 32 -c 2 -a 0 -i 4 -k MAC
r -t 0.198046854 -s 24 -d -1 -p message -e 32 -c 2 -a 0 -i 4 -k MAC
r -t 0.198071854 -s 14 -d -1 -p message -e 32 -c 2 -a 0 -i 4 -k RTR
r -t 0.198071854 -s 18 -d -1 -p message -e 32 -c 2 -a 0 -i 4 -k RTR
r -t 0.198071854 -s 24 -d -1 -p message -e 32 -c 2 -a 0 -i 4 -k RTR
+ -t 0.233566771 -s 15 -d -1 -p message -e 32 -c 2 -a 0 -i 5 -k RTR 
- -t 0.233566771 -s 15 -d -1 -p message -e 32 -c 2 -a 0 -i 5 -k RTR
h -t 0.233566771 -s 15 -d -1 -p message -e 32 -c 2 -a 0 -i 5 -k RTR
+ -t 0.233921771 -s 15 -d -1 -p message -e 90 -c 2 -a 0 -i 5 -k MAC 
- -t 0.233921771 -s 15 -d -1 -p message -e 90 -c 2 -a 0 -i 5 -k MAC
h -t 0.233921771 -s 15 -d -1 -p message -e 90 -c 2 -a 0 -i 5 -k MAC
r -t 0.234642438 -s 10 -d -1 -p message -e 32 -c 2 -a 0 -i 5 -k MAC
r -t 0.234642438 -s 20 -d -1 -p message -e 32 -c 2 -a 0 -i 5 -k MAC
r -t 0.234642438 -s 16 -d -1 -p message -e 32 -c 2 -a 0 -i 5 -k MAC
r -t 0.234667438 -s 10 -d -1 -p message -e 32 -c 2 -a 0 -i 5 -k RTR
r -t 0.234667438 -s 20 -d -1 -p message -e 32 -c 2 -a 0 -i 5 -k RTR
r -t 0.234667438 -s 16 -d -1 -p message -e 32 -c 2 -a 0 -i 5 -k RTR
+ -t 0.330860751 -s 12 -d -1 -p message -e 32 -c 2 -a 0 -i 6 -k RTR 
- -t 0.330860751 -s 12 -d -1 -p message -e 32 -c 2 -a 0 -i 6 -k RTR
h -t 0.330860751 -s 12 -d -1 -p message -e 32 -c 2 -a 0 -i 6 -k RTR
+ -t 0.330935751 -s 12 -d -1 -p message -e 90 -c 2 -a 0 -i 6 -k MAC 
- -t 0.330935751 -s 12 -d -1 -p message -e 90 -c 2 -a 0 -i 6 -k MAC
h -t 0.330935751 -s 12 -d -1 -p message -e 90 -c 2 -a 0 -i 6 -k MAC
r -t 0.331656417 -s 7 -d -1 -p message -e 32 -c 2 -a 0 -i 6 -k MAC
r -t 0.331656417 -s 11 -d -1 -p message -e 32 -c 2 -a 0 -i 6 -k MAC
r -t 0.331656417 -s 17 -d -1 -p message -e 32 -c 2 -a 0 -i 6 -k MAC
r -t 0.331656417 -s 13 -d -1 -p message -e 32 -c 2 -a 0 -i 6 -k MAC
r -t 0.331681417 -s 7 -d -1 -p message -e 32 -c 2 -a 0 -i 6 -k RTR
r -t 0.331681417 -s 11 -d -1 -p message -e 32 -c 2 -a 0 -i 6 -k RTR
r -t 0.331681417 -s 17 -d -1 -p message -e 32 -c 2 -a 0 -i 6 -k RTR
r -t 0.331681417 -s 13 -d -1 -p message -e 32 -c 2 -a 0 -i 6 -k RTR
+ -t 0.352228749 -s 18 -d -1 -p message -e 32 -c 2 -a 0 -i 7 -k RTR 
- -t 0.352228749 -s 18 -d -1 -p message -e 32 -c 2 -a 0 -i 7 -k RTR
h -t 0.352228749 -s 18 -d -1 -p message -e 32 -c 2 -a 0 -i 7 -k RTR
+ -t 0.352523749 -s 18 -d -1 -p message -e 90 -c 2 -a 0 -i 7 -k MAC 
- -t 0.352523749 -s 18 -d -1 -p message -e 90 -c 2 -a 0 -i 7 -k MAC
h -t 0.352523749 -s 18 -d -1 -p message -e 90 -c 2 -a 0 -i 7 -k MAC
r -t 0.353244416 -s 13 -d -1 -p message -e 32 -c 2 -a 0 -i 7 -k MAC
r -t 0.353244416 -s 17 -d -1 -p message -e 32 -c 2 -a 0 -i 7 -k MAC
r -t 0.353244416 -s 23 -d -1 -p message -e 32 -c 2 -a 0 -i 7 -k MAC
r -t 0.353244416 -s 19 -d -1 -p message -e 32 -c 2 -a 0 -i 7 -k MAC
r -t 0.353269416 -s 13 -d -1 -p message -e 32 -c 2 -a 0 -i 7 -k RTR
r -t 0.353269416 -s 17 -d -1 -p message -e 32 -c 2 -a 0 -i 7 -k RTR
r -t 0.353269416 -s 23 -d -1 -p message -e 32 -c 2 -a 0 -i 7 -k RTR
r -t 0.353269416 -s 19 -d -1 -p message -e 32 -c 2 -a 0 -i 7 -k RTR
+ -t 0.472476674 -s 8 -d -1 -p message -e 32 -c 2 -a 0 -i 8 -k RTR 
- -t 0.472476674 -s 8 -d -1 -p message -e 32 -c 2 -a 0 -i 8 -k RTR
h -t 0.472476674 -s 8 -d -1 -p message -e 32 -c 2 -a 0 -i 8 -k RTR
+ -t 0.472791674 -s 8 -d -1 -p message -e 90 -c 2 -a 0 -i 8 -k MAC 
- -t 0.472791674 -s 8 -d -1 -p message -e 90 -c 2 -a 0 -i 8 -k MAC
h -t 0.472791674 -s 8 -d -1 -p message -e 90 -c 2 -a 0 -i 8 -k MAC
r -t 0.473512340 -s 3 -d -1 -p message -e 32 -c 2 -a 0 -i 8 -k MAC
r -t 0.473512340 -s 7 -d -1 -p message -e 32 -c 2 -a 0 -i 8 -k MAC
r -t 0.473512340 -s 13 -d -1 -p message -e 32 -c 2 -a 0 -i 8 -k MAC
r -t 0.473512340 -s 9 -d -1 -p message -e 32 -c 2 -a 0 -i 8 -k MAC
r -t 0.473537340 -s 3 -d -1 -p message -e 32 -c 2 -a 0 -i 8 -k RTR
r -t 0.473537340 -s 7 -d -1 -p message -e 32 -c 2 -a 0 -i 8 -k RTR
r -t 0.473537340 -s 13 -d -1 -p message -e 32 -c 2 -a 0 -i 8 -k RTR
r -t 0.473537340 -s 9 -d -1 -p message -e 32 -c 2 -a 0 -i 8 -k RTR
+ -t 0.523902855 -s 22 -d -1 -p message -e 32 -c 2 -a 0 -i 9 -k RTR 
- -t 0.523902855 -s 22 -d -1 -p message -e 32 -c 2 -a 0 -i 9 -k RTR
h -t 0.523902855 -s 22 -d -1 -p message -e 32 -c 2 -a 0 -i 9 -k RTR
+ -t 0.524457855 -s 22 -d -1 -p message -e 90 -c 2 -a 0 -i 9 -k MAC 
- -t 0.524457855 -s 22 -d -1 -p message -e 90 -c 2 -a 0 -i 9 -k MAC
h -t 0.524457855 -s 22 -d -1 -p message -e 90 -c 2 -a 0 -i 9 -k MAC
r -t 0.525178522 -s 17 -d -1 -p message -e 32 -c 2 -a 0 -i 9 -k MAC
r -t 0.525178522 -s 21 -d -1 -p message -e 32 -c 2 -a 0 -i 9 -k MAC
r -t 0.525178522 -s 23 -d -1 -p message -e 32 -c 2 -a 0 -i 9 -k MAC
r -t 0.525203522 -s 17 -d -1 -p message -e 32 -c 2 -a 0 -i 9 -k RTR
r -t 0.525203522 -s 21 -d -1 -p message -e 32 -c 2 -a 0 -i 9 -k RTR
r -t 0.525203522 -s 23 -d -1 -p message -e 32 -c 2 -a 0 -i 9 -k RTR
+ -t 0.627918183 -s 10 -d -1 -p message -e 32 -c 2 -a 0 -i 10 -k RTR 
- -t 0.627918183 -s 10 -d -1 -p message -e 32 -c 2 -a 0 -i 10 -k RTR
h -t 0.627918183 -s 10 -d -1 -p message -e 32 -c 2 -a 0 -i 10 -k RTR
+ -t 0.628113183 -s 10 -d -1 -p message -e 90 -c 2 -a 0 -i 10 -k MAC 
- -t 0.628113183 -s 10 -d -1 -p message -e 90 -c 2 -a 0 -i 10 -k MAC
h -t 0.628113183 -s 10 -d -1 -p message -e 90 -c 2 -a 0 -i 10 -k MAC
r -t 0.628833849 -s 5 -d -1 -p message -e 32 -c 2 -a 0 -i 10 -k MAC
r -t 0.628833849 -s 15 -d -1 -p message -e 32 -c 2 -a 0 -i 10 -k MAC
r -t 0.628833849 -s 11 -d -1 -p message -e 32 -c 2 -a 0 -i 10 -k MAC
r -t 0.628858849 -s 5 -d -1 -p message -e 32 -c 2 -a 0 -i 10 -k RTR
r -t 0.628858849 -s 15 -d -1 -p message -e 32 -c 2 -a 0 -i 10 -k RTR
r -t 0.628858849 -s 11 -d -1 -p message -e 32 -c 2 -a 0 -i 10 -k RTR
+ -t 0.630840760 -s 6 -d -1 -p message -e 32 -c 2 -a 0 -i 11 -k RTR 
- -t 0.630840760 -s 6 -d -1 -p message -e 32 -c 2 -a 0 -i 11 -k RTR
h -t 0.630840760 -s 6 -d -1 -p message -e 32 -c 2 -a 0 -i 11 -k RTR
+ -t 0.631015760 -s 6 -d -1 -p message -e 90 -c 2 -a 0 -i 11 -k MAC 
- -t 0.631015760 -s 6 -d -1 -p message -e 90 -c 2 -a 0 -i 11 -k MAC
h -t 0.631015760 -s 6 -d -1 -p message -e 90 -c 2 -a 0 -i 11 -k MAC
r -t 0.631736427 -s 1 -d -1 -p message -e 32 -c 2 -a 0 -i 11 -k MAC
r -t 0.631736427 -s 5 -d -1 -p message -e 32 -c 2 -a 0 -i 11 -k MAC
r -t 0.631736427 -s 11 -d -1 -p message -e 32 -c 2 -a 0 -i 11 -k MAC
r -t 0.631736427 -s 7 -d -1 -p message -e 32 -c 2 -a 0 -i 11 -k MAC
r -t 0.631761427 -s 1 -d -1 -p message -e 32 -c 2 -a 0 -i 11 -k RTR
r -t 0.631761427 -s 5 -d -1 -p message -e 32 -c 2 -a 0 -i 11 -k RTR
r -t 0.631761427 -s 11 -d -1 -p message -e 32 -c 2 -a 0 -i 11 -k RTR
r -t 0.631761427 -s 7 -d -1 -p message -e 32 -c 2 -a 0 -i 11 -k RTR
+ -t 0.698364053 -s 21 -d -1 -p message -e 32 -c 2 -a 0 -i 12 -k RTR 
- -t 0.698364053 -s 21 -d -1 -p message -e 32 -c 2 -a 0 -i 12 -k RTR
h -t 0.698364053 -s 21 -d -1 -p message -e 32 -c 2 -a 0 -i 12 -k RTR
+ -t 0.698499053 -s 21 -d -1 -p message -e 90 -c 2 -a 0 -i 12 -k MAC 
- -t 0.698499053 -s 21 -d -1 -p message -e 90 -c 2 -a 0 -i 12 -k MAC
h -t 0.698499053 -s 21 -d -1 -p message -e 90 -c 2 -a 0 -i 12 -k MAC
r -t 0.699219719 -s 16 -d -1 -p message -e 32 -c 2 -a 0 -i 12 -k MAC
r -t 0.699219719 -s 20 -d -1 -p message -e 32 -c 2 -a 0 -i 12 -k MAC
r -t 0.699219719 -s 22 -d -1 -p message -e 32 -c 2 -a 0 -i 12 -k MAC
r -t 0.699244719 -s 16 -d -1 -p message -e 32 -c 2 -a 0 -i 12 -k RTR
r -t 0.699244719 -s 20 -d -1 -p message -e 32 -c 2 -a 0 -i 12 -k RTR
r -t 0.699244719 -s 22 -d -1 -p message -e 32 -c 2 -a 0 -i 12 -k RTR
+ -t 0.826117815 -s 23 -d -1 -p message -e 32 -c 2 -a 0 -i 13 -k RTR 
- -t 0.826117815 -s 23 -d -1 -p message -e 32 -c 2 -a 0 -i 13 -k RTR
h -t 0.826117815 -s 23 -d -1 -p message -e 32 -c 2 -a 0 -i 13 -k RTR
+ -t 0.826252815 -s 23 -d -1 -p message -e 90 -c 2 -a 0 -i 13 -k MAC 
- -t 0.826252815 -s 23 -d -1 -p message -e 90 -c 2 -a 0 -i 13 -k MAC
h -t 0.826252815 -s 23 -d -1 -p message -e 90 -c 2 -a 0 -i 13 -k MAC
r -t 0.826973482 -s 18 -d -1 -p message -e 32 -c 2 -a 0 -i 13 -k MAC
r -t 0.826973482 -s 22 -d -1 -p message -e 32 -c 2 -a 0 -i 13 -k MAC
r -t 0.826973482 -s 24 -d -1 -p message -e 32 -c 2 -a 0 -i 13 -k MAC
r -t 0.826998482 -s 18 -d -1 -p message -e 32 -c 2 -a 0 -i 13 -k RTR
r -t 0.826998482 -s 22 -d -1 -p message -e 32 -c 2 -a 0 -i 13 -k RTR
r -t 0.826998482 -s 24 -d -1 -p message -e 32 -c 2 -a 0 -i 13 -k RTR
+ -t 0.850874058 -s 17 -d -1 -p message -e 32 -c 2 -a 0 -i 14 -k RTR 
- -t 0.850874058 -s 17 -d -1 -p message -e 32 -c 2 -a 0 -i 14 -k RTR
h -t 0.850874058 -s 17 -d -1 -p message -e 32 -c 2 -a 0 -i 14 -k RTR
+ -t 0.851389058 -s 17 -d -1 -p message -e 90 -c 2 -a 0 -i 14 -k MAC 
- -t 0.851389058 -s 17 -d -1 -p message -e 90 -c 2 -a 0 -i 14 -k MAC
h -t 0.851389058 -s 17 -d -1 -p message -e 90 -c 2 -a 0 -i 14 -k MAC
r -t 0.852109725 -s 12 -d -1 -p message -e 32 -c 2 -a 0 -i 14 -k MAC
r -t 0.852109725 -s 16 -d -1 -p message -e 32 -c 2 -a 0 -i 14 -k MAC
r -t 0.852109725 -s 22 -d -1 -p message -e 32 -c 2 -a 0 -i 14 -k MAC
r -t 0.852109725 -s 18 -d -1 -p message -e 32 -c 2 -a 0 -i 14 -k MAC
r -t 0.852134725 -s 12 -d -1 -p message -e 32 -c 2 -a 0 -i 14 -k RTR
r -t 0.852134725 -s 16 -d -1 -p message -e 32 -c 2 -a 0 -i 14 -k RTR
r -t 0.852134725 -s 22 -d -1 -p message -e 32 -c 2 -a 0 -i 14 -k RTR
r -t 0.852134725 -s 18 -d -1 -p message -e 32 -c 2 -a 0 -i 14 -k RTR
+ -t 0.888982023 -s 4 -d -1 -p message -e 32 -c 2 -a 0 -i 15 -k RTR 
- -t 0.888982023 -s 4 -d -1 -p message -e 32 -c 2 -a 0 -i 15 -k RTR
h -t 0.888982023 -s 4 -d -1 -p message -e 32 -c 2 -a 0 -i 15 -k RTR
+ -t 0.889357023 -s 4 -d -1 -p message -e 90 -c 2 -a 0 -i 15 -k MAC 
- -t 0.889357023 -s 4 -d -1 -p message -e 90 -c 2 -a 0 -i 15 -k MAC
h -t 0.889357023 -s 4 -d -1 -p message -e 90 -c 2 -a 0 -i 15 -k MAC
r -t 0.890077690 -s 3 -d -1 -p message -e 32 -c 2 -a 0 -i 15 -k MAC
r -t 0.890077690 -s 9 -d -1 -p message -e 32 -c 2 -a 0 -i 15 -k MAC
r -t 0.890102690 -s 3 -d -1 -p message -e 32 -c 2 -a 0 -i 15 -k RTR
r -t 0.890102690 -s 9 -d -1 -p message -e 32 -c 2 -a 0 -i 15 -k RTR
+ -t 1.000000000 -s 7 -d -1 -p cbr -e 1000 -c 2 -a 0 -i 16 -k AGT 
- -t 1.000000000 -s 7 -d -1 -p cbr -e 1000 -c 2 -a 0 -i 16 -k AGT
h -t 1.000000000 -s 7 -d -1 -p cbr -e 1000 -c 2 -a 0 -i 16 -k AGT
+ -t 1.000000000 -s 7 -d 6 -p cbr -e 1020 -c 2 -a 0 -i 16 -k RTR 
- -t 1.000000000 -s 7 -d 6 -p cbr -e 1020 -c 2 -a 0 -i 16 -k RTR
h -t 1.000000000 -s 7 -d 6 -p cbr -e 1020 -c 2 -a 0 -i 16 -k RTR
+ -t 1.000000000 -s 5 -d -1 -p cbr -e 1000 -c 2 -a 0 -i 17 -k AGT 
- -t 1.000000000 -s 5 -d -1 -p cbr -e 1000 -c 2 -a 0 -i 17 -k AGT
h -t 1.000000000 -s 5 -d -1 -p cbr -e 1000 -c 2 -a 0 -i 17 -k AGT
+ -t 1.000000000 -s 5 -d 6 -p cbr -e 1020 -c 2 -a 0 -i 17 -k RTR 
- -t 1.000000000 -s 5 -d 6 -p cbr -e 1020 -c 2 -a 0 -i 17 -k RTR
h -t 1.000000000 -s 5 -d 6 -p cbr -e 1020 -c 2 -a 0 -i 17 -k RTR
+ -t 1.000000000 -s 1 -d -1 -p cbr -e 1000 -c 2 -a 0 -i 18 -k AGT 
- -t 1.000000000 -s 1 -d -1 -p cbr -e 1000 -c 2 -a 0 -i 18 -k AGT
h -t 1.000000000 -s 1 -d -1 -p cbr -e 1000 -c 2 -a 0 -i 18 -k AGT
+ -t 1.000000000 -s 1 -d 0 -p cbr -e 1020 -c 2 -a 0 -i 18 -k RTR 
- -t 1.000000000 -s 1 -d 0 -p cbr -e 1020 -c 2 -a 0 -i 18 -k RTR
h -t 1.000000000 -s 1 -d 0 -p cbr -e 1020 -c 2 -a 0 -i 18 -k RTR
+ -t 1.000000000 -s 5 -d -1 -p cbr -e 1000 -c 2 -a 0 -i 19 -k AGT 
- -t 1.000000000 -s 5 -d -1 -p cbr -e 1000 -c 2 -a 0 -i 19 -k AGT
h -t 1.000000000 -s 5 -d -1 -p cbr -e 1000 -c 2 -a 0 -i 19 -k AGT
+ -t 1.000000000 -s 5 -d 0 -p cbr -e 1020 -c 2 -a 0 -i 19 -k RTR 
- -t 1.000000000 -s 5 -d 0 -p cbr -e 1020 -c 2 -a 0 -i 19 -k RTR
h -t 1.000000000 -s 5 -d 0 -p cbr -e 1020 -c 2 -a 0 -i 19 -k RTR
+ -t 1.000095000 -s 7 -d -1 -p ARP -e 86 -c 2 -a 0 -i 0 -k MAC 
- -t 1.000095000 -s 7 -d -1 -p ARP -e 86 -c 2 -a 0 -i 0 -k MAC
h -t 1.000095000 -s 7 -d -1 -p ARP -e 86 -c 2 -a 0 -i 0 -k MAC
r -t 1.000783667 -s 2 -d -1 -p ARP -e 28 -c 2 -a 0 -i 0 -k MAC
r -t 1.000783667 -s 6 -d -1 -p ARP -e 28 -c 2 -a 0 -i 0 -k MAC
r -t 1.000783667 -s 12 -d -1 -p ARP -e 28 -c 2 -a 0 -i 0 -k MAC
r -t 1.000783667 -s 8 -d -1 -p ARP -e 28 -c 2 -a 0 -i 0 -k MAC
+ -t 1.000998667 -s 6 -d -1 -p RTS -e 44 -c 2 -a 0 -i 0 -k MAC 
- -t 1.000998667 -s 6 -d -1 -p RTS -e 44 -c 2 -a 0 -i 0 -k MAC
h -t 1.000998667 -s 6 -d -1 -p RTS -e 44 -c 2 -a 0 -i 0 -k MAC
r -t 1.001351333 -s 7 -d -1 -p RTS -e 44 -c 2 -a 0 -i 0 -k MAC
+ -t 1.001361333 -s 7 -d -1 -p CTS -e 38 -c 2 -a 0 -i 0 -k MAC 
- -t 1.001361333 -s 7 -d -1 -p CTS -e 38 -c 2 -a 0 -i 0 -k MAC
h -t 1.001361333 -s 7 -d -1 -p CTS -e 38 -c 2 -a 0 -i 0 -k MAC
r -t 1.001666000 -s 6 -d -1 -p CTS -e 38 -c 2 -a 0 -i 0 -k MAC
+ -t 1.001676000 -s 6 -d -1 -p ARP -e 86 -c 2 -a 0 -i 0 -k MAC 
- -t 1.001676000 -s 6 -d -1 -p ARP -e 86 -c 2 -a 0 -i 0 -k MAC
h -t 1.001676000 -s 6 -d -1 -p ARP -e 86 -c 2 -a 0 -i 0 -k MAC
r -t 1.002364667 -s 7 -d -1 -p ARP -e 28 -c 2 -a 0 -i 0 -k MAC
+ -t 1.002374667 -s 7 -d -1 -p ACK -e 38 -c 2 -a 0 -i 0 -k MAC 
- -t 1.002374667 -s 7 -d -1 -p ACK -e 38 -c 2 -a 0 -i 0 -k MAC
h -t 1.002374667 -s 7 -d -1 -p ACK -e 38 -c 2 -a 0 -i 0 -k MAC
r -t 1.002679333 -s 6 -d -1 -p ACK -e 38 -c 2 -a 0 -i 0 -k MAC
+ -t 1.002748667 -s 7 -d -1 -p RTS -e 44 -c 2 -a 0 -i 0 -k MAC 
- -t 1.002748667 -s 7 -d -1 -p RTS -e 44 -c 2 -a 0 -i 0 -k MAC
h -t 1.002748667 -s 7 -d -1 -p RTS -e 44 -c 2 -a 0 -i 0 -k MAC
r -t 1.003101333 -s 6 -d -1 -p RTS -e 44 -c 2 -a 0 -i 0 -k MAC
+ -t 1.003111333 -s 6 -d -1 -p CTS -e 38 -c 2 -a 0 -i 0 -k MAC 
- -t 1.003111333 -s 6 -d -1 -p CTS -e 38 -c 2 -a 0 -i 0 -k MAC
h -t 1.003111333 -s 6 -d -1 -p CTS -e 38 -c 2 -a 0 -i 0 -k MAC
r -t 1.003416000 -s 7 -d -1 -p CTS -e 38 -c 2 -a 0 -i 0 -k MAC
+ -t 1.003426000 -s 7 -d 6 -p cbr -e 1078 -c 2 -a 0 -i 16 -k MAC 
- -t 1.003426000 -s 7 -d 6 -p cbr -e 1078 -c 2 -a 0 -i 16 -k MAC
h -t 1.003426000 -s 7 -d 6 -p cbr -e 1078 -c 2 -a 0 -i 16 -k MAC
+ -t 1.008000000 -s 7 -d -1 -p cbr -e 1000 -c 2 -a 0 -i 20 -k AGT 
- -t 1.008000000 -s 7 -d -1 -p cbr -e 1000 -c 2 -a 0 -i 20 -k AGT
h -t 1.008000000 -s 7 -d -1 -p cbr -e 1000 -c 2 -a 0 -i 20 -k AGT
+ -t 1.008000000 -s 7 -d 6 -p cbr -e 1020 -c 2 -a 0 -i 20 -k RTR 
- -t 1.008000000 -s 7 -d 6 -p cbr -e 1020 -c 2 -a 0 -i 20 -k RTR
h -t 1.008000000 -s 7 -d 6 -p cbr -e 1020 -c 2 -a 0 -i 20 -k RTR
+ -t 1.008000000 -s 5 -d -1 -p cbr -e 1000 -c 2 -a 0 -i 21 -k AGT 
- -t 1.008000000 -s 5 -d -1 -p cbr -e 1000 -c 2 -a 0 -i 21 -k AGT
h -t 1.008000000 -s 5 -d -1 -p cbr -e 1000 -c 2 -a 0 -i 21 -k AGT
+ -t 1.008000000 -s 5 -d 6 -p cbr -e 1020 -c 2 -a 0 -i 21 -k RTR 
- -t 1.008000000 -s 5 -d 6 -p cbr -e 1020 -c 2 -a 0 -i 21 -k RTR
h -t 1.008000000 -s 5 -d 6 -p cbr -e 1020 -c 2 -a 0 -i 21 -k RTR
d -t 1.008000000 -s 5 -d 6 -p cbr -e 1020 -c 2 -a 0 -i 17 -k IFQ
+ -t 1.008000000 -s 1 -d -1 -p cbr -e 1000 -c 2 -a 0 -i 22 -k AGT 
- -t 1.008000000 -s 1 -d -1 -p cbr -e 1000 -c 2 -a 0 -i 22 -k AGT
h -t 1.008000000 -s 1 -d -1 -p cbr -e 1000 -c 2 -a 0 -i 22 -k AGT
+ -t 1.008000000 -s 1 -d 0 -p cbr -e 1020 -c 2 -a 0 -i 22 -k RTR 
- -t 1.008000000 -s 1 -d 0 -p cbr -e 1020 -c 2 -a 0 -i 22 -k RTR
h -t 1.008000000 -s 1 -d 0 -p cbr -e 1020 -c 2 -a 0 -i 22 -k RTR
d -t 1.008000000 -s 1 -d 0 -p cbr -e 1020 -c 2 -a 0 -i 18 -k IFQ
+ -t 1.008000000 -s 5 -d -1 -p cbr -e 1000 -c 2 -a 0 -i 23 -k AGT 
- -t 1.008000000 -s 5 -d -1 -p cbr -e 1000 -c 2 -a 0 -i 23 -k AGT
h -t 1.008000000 -s 5 -d -1 -p cbr -e 1000 -c 2 -a 0 -i 23 -k AGT
+ -t 1.008000000 -s 5 -d 0 -p cbr -e 1020 -c 2 -a 0 -i 23 -k RTR 
- -t 1.008000000 -s 5 -d 0 -p cbr -e 1020 -c 2 -a 0 -i 23 -k RTR
h -t 1.008000000 -s 5 -d 0 -p cbr -e 1020 -c 2 -a 0 -i 23 -k RTR
d -t 1.008000000 -s 5 -d 0 -p cbr -e 1020 -c 2 -a 0 -i 19 -k IFQ
r -t 1.012050667 -s 6 -d 6 -p cbr -e 1020 -c 2 -a 0 -i 16 -k MAC
+ -t 1.012060667 -s 6 -d -1 -p ACK -e 38 -c 2 -a 0 -i 0 -k MAC 
- -t 1.012060667 -s 6 -d -1 -p ACK -e 38 -c 2 -a 0 -i 0 -k MAC
h -t 1.012060667 -s 6 -d -1 -p ACK -e 38 -c 2 -a 0 -i 0 -k MAC
r -t 1.012075667 -s 6 -d 6 -p cbr -e 1020 -c 2 -a 0 -i 16 -k AGT
r -t 1.012365333 -s 7 -d -1 -p ACK -e 38 -c 2 -a 0 -i 0 -k MAC
+ -t 1.012644943 -s 1 -d -1 -p ARP -e 86 -c 2 -a 0 -i 0 -k MAC 
- -t 1.012644943 -s 1 -d -1 -p ARP -e 86 -c 2 -a 0 -i 0 -k MAC
h -t 1.012644943 -s 1 -d -1 -p ARP -e 86 -c 2 -a 0 -i 0 -k MAC
r -t 1.013333609 -s 0 -d -1 -p ARP -e 28 -c 2 -a 0 -i 0 -k MAC
r -t 1.013333609 -s 6 -d -1 -p ARP -e 28 -c 2 -a 0 -i 0 -k MAC
r -t 1.013333609 -s 2 -d -1 -p ARP -e 28 -c 2 -a 0 -i 0 -k MAC
+ -t 1.013502943 -s 1 -d -1 -p ARP -e 86 -c 2 -a 0 -i 0 -k MAC 
- -t 1.013502943 -s 1 -d -1 -p ARP -e 86 -c 2 -a 0 -i 0 -k MAC
h -t 1.013502943 -s 1 -d -1 -p ARP -e 86 -c 2 -a 0 -i 0 -k MAC
r -t 1.014191609 -s 0 -d -1 -p ARP -e 28 -c 2 -a 0 -i 0 -k MAC
r -t 1.014191609 -s 6 -d -1 -p ARP -e 28 -c 2 -a 0 -i 0 -k MAC
r -t 1.014191609 -s 2 -d -1 -p ARP -e 28 -c 2 -a 0 -i 0 -k MAC
+ -t 1.014301609 -s 0 -d -1 -p RTS -e 44 -c 2 -a 0 -i 0 -k MAC 
- -t 1.014301609 -s 0 -d -1 -p RTS -e 44 -c 2 -a 0 -i 0 -k MAC
h -t 1.014301609 -s 0 -d -1 -p RTS -e 44 -c 2 -a 0 -i 0 -k MAC
r -t 1.014654276 -s 1 -d -1 -p RTS -e 44 -c 2 -a 0 -i 0 -k MAC
+ -t 1.014664276 -s 1 -d -1 -p CTS -e 38 -c 2 -a 0 -i 0 -k MAC 
- -t 1.014664276 -s 1 -d -1 -p CTS -e 38 -c 2 -a 0 -i 0 -k MAC
h -t 1.014664276 -s 1 -d -1 -p CTS -e 38 -c 2 -a 0 -i 0 -k MAC
r -t 1.014968943 -s 0 -d -1 -p CTS -e 38 -c 2 -a 0 -i 0 -k MAC
+ -t 1.014978943 -s 0 -d -1 -p ARP -e 86 -c 2 -a 0 -i 0 -k MAC 
- -t 1.014978943 -s 0 -d -1 -p ARP -e 86 -c 2 -a 0 -i 0 -k MAC
h -t 1.014978943 -s 0 -d -1 -p ARP -e 86 -c 2 -a 0 -i 0 -k MAC
r -t 1.015667609 -s 1 -d -1 -p ARP -e 28 -c 2 -a 0 -i 0 -k MAC
+ -t 1.015677609 -s 1 -d -1 -p ACK -e 38 -c 2 -a 0 -i 0 -k MAC 
- -t 1.015677609 -s 1 -d -1 -p ACK -e 38 -c 2 -a 0 -i 0 -k MAC
h -t 1.015677609 -s 1 -d -1 -p ACK -e 38 -c 2 -a 0 -i 0 -k MAC
r -t 1.015982276 -s 0 -d -1 -p ACK -e 38 -c 2 -a 0 -i 0 -k MAC
+ -t 1.016000000 -s 7 -d -1 -p cbr -e 1000 -c 2 -a 0 -i 24 -k AGT 
- -t 1.016000000 -s 7 -d -1 -p cbr -e 1000 -c 2 -a 0 -i 24 -k AGT
h -t 1.016000000 -s 7 -d -1 -p cbr -e 1000 -c 2 -a 0 -i 24 -k AGT
+ -t 1.016000000 -s 7 -d 6 -p cbr -e 1020 -c 2 -a 0 -i 24 -k RTR 
- -t 1.016000000 -s 7 -d 6 -p cbr -e 1020 -c 2 -a 0 -i 24 -k RTR
h -t 1.016000000 -s 7 -d 6 -p cbr -e 1020 -c 2 -a 0 -i 24 -k RTR
+ -t 1.016000000 -s 5 -d -1 -p cbr -e 1000 -c 2 -a 0 -i 25 -k AGT 
- -t 1.016000000 -s 5 -d -1 -p cbr -e 1000 -c 2 -a 0 -i 25 -k AGT
h -t 1.016000000 -s 5 -d -1 -p cbr -e 1000 -c 2 -a 0 -i 25 -k AGT
+ -t 1.016000000 -s 5 -d 6 -p cbr -e 1020 -c 2 -a 0 -i 25 -k RTR 
- -t 1.016000000 -s 5 -d 6 -p cbr -e 1020 -c 2 -a 0 -i 25 -k RTR
h -t 1.016000000 -s 5 -d 6 -p cbr -e 1020 -c 2 -a 0 -i 25 -k RTR
d -t 1.016000000 -s 5 -d 6 -p cbr -e 1020 -c 2 -a 0 -i 21 -k IFQ
+ -t 1.016000000 -s 1 -d -1 -p cbr -e 1000 -c 2 -a 0 -i 26 -k AGT 
- -t 1.016000000 -s 1 -d -1 -p cbr -e 1000 -c 2 -a 0 -i 26 -k AGT
h -t 1.016000000 -s 1 -d -1 -p cbr -e 1000 -c 2 -a 0 -i 26 -k AGT
+ -t 1.016000000 -s 1 -d 0 -p cbr -e 1020 -c 2 -a 0 -i 26 -k RTR 
- -t 1.016000000 -s 1 -d 0 -p cbr -e 1020 -c 2 -a 0 -i 26 -k RTR
h -t 1.016000000 -s 1 -d 0 -p cbr -e 1020 -c 2 -a 0 -i 26 -k RTR
+ -t 1.016000000 -s 5 -d -1 -p cbr -e 1000 -c 2 -a 0 -i 27 -k AGT 
- -t 1.016000000 -s 5 -d -1 -p cbr -e 1000 -c 2 -a 0 -i 27 -k AGT
h -t 1.016000000 -s 5 -d -1 -p cbr -e 1000 -c 2 -a 0 -i 27 -k AGT
+ -t 1.016000000 -s 5 -d 0 -p cbr -e 1020 -c 2 -a 0 -i 27 -k RTR 
- -t 1.016000000 -s 5 -d 0 -p cbr -e 1020 -c 2 -a 0 -i 27 -k RTR
h -t 1.016000000 -s 5 -d 0 -p cbr -e 1020 -c 2 -a 0 -i 27 -k RTR
d -t 1.016000000 -s 5 -d 0 -p cbr -e 1020 -c 2 -a 0 -i 23 -k IFQ
+ -t 1.016032276 -s 0 -d -1 -p RTS -e 44 -c 2 -a 0 -i 0 -k MAC 
- -t 1.016032276 -s 0 -d -1 -p RTS -e 44 -c 2 -a 0 -i 0 -k MAC
h -t 1.016032276 -s 0 -d -1 -p RTS -e 44 -c 2 -a 0 -i 0 -k MAC
r -t 1.016384943 -s 1 -d -1 -p RTS -e 44 -c 2 -a 0 -i 0 -k MAC
+ -t 1.016394943 -s 1 -d -1 -p CTS -e 38 -c 2 -a 0 -i 0 -k MAC 
- -t 1.016394943 -s 1 -d -1 -p CTS -e 38 -c 2 -a 0 -i 0 -k MAC
h -t 1.016394943 -s 1 -d -1 -p CTS -e 38 -c 2 -a 0 -i 0 -k MAC
r -t 1.016699609 -s 0 -d -1 -p CTS -e 38 -c 2 -a 0 -i 0 -k MAC
+ -t 1.016709609 -s 0 -d -1 -p ARP -e 86 -c 2 -a 0 -i 0 -k MAC 
- -t 1.016709609 -s 0 -d -1 -p ARP -e 86 -c 2 -a 0 -i 0 -k MAC
h -t 1.016709609 -s 0 -d -1 -p ARP -e 86 -c 2 -a 0 -i 0 -k MAC
r -t 1.017398276 -s 1 -d -1 -p ARP -e 28 -c 2 -a 0 -i 0 -k MAC
+ -t 1.017408276 -s 1 -d -1 -p ACK -e 38 -c 2 -a 0 -i 0 -k MAC 
- -t 1.017408276 -s 1 -d -1 -p ACK -e 38 -c 2 -a 0 -i 0 -k MAC
h -t 1.017408276 -s 1 -d -1 -p ACK -e 38 -c 2 -a 0 -i 0 -k MAC
r -t 1.017712943 -s 0 -d -1 -p ACK -e 38 -c 2 -a 0 -i 0 -k MAC
+ -t 1.017922276 -s 1 -d -1 -p RTS -e 44 -c 2 -a 0 -i 0 -k MAC 
- -t 1.017922276 -s 1 -d -1 -p RTS -e 44 -c 2 -a 0 -i 0 -k MAC
h -t 1.017922276 -s 1 -d -1 -p RTS -e 44 -c 2 -a 0 -i 0 -k MAC
r -t 1.018274943 -s 0 -d -1 -p RTS -e 44 -c 2 -a 0 -i 0 -k MAC
+ -t 1.018284943 -s 0 -d -1 -p CTS -e 38 -c 2 -a 0 -i 0 -k MAC 
- -t 1.018284943 -s 0 -d -1 -p CTS -e 38 -c 2 -a 0 -i 0 -k MAC
h -t 1.018284943 -s 0 -d -1 -p CTS -e 38 -c 2 -a 0 -i 0 -k MAC
r -t 1.018589609 -s 1 -d -1 -p CTS -e 38 -c 2 -a 0 -i 0 -k MAC
+ -t 1.018599609 -s 1 -d 0 -p cbr -e 1078 -c 2 -a 0 -i 22 -k MAC 
- -t 1.018599609 -s 1 -d 0 -p cbr -e 1078 -c 2 -a 0 -i 22 -k MAC
h -t 1.018599609 -s 1 -d 0 -p cbr -e 1078 -c 2 -a 0 -i 22 -k MAC
+ -t 1.024000000 -s 7 -d -1 -p cbr -e 1000 -c 2 -a 0 -i 28 -k AGT 
- -t 1.024000000 -s 7 -d -1 -p cbr -e 1000 -c 2 -a 0 -i 28 -k AGT
h -t 1.024000000 -s 7 -d -1 -p cbr -e 1000 -c 2 -a 0 -i 28 -k AGT
+ -t 1.024000000 -s 7 -d 6 -p cbr -e 1020 -c 2 -a 0 -i 28 -k RTR 
- -t 1.024000000 -s 7 -d 6 -p cbr -e 1020 -c 2 -a 0 -i 28 -k RTR
h -t 1.024000000 -s 7 -d 6 -p cbr -e 1020 -c 2 -a 0 -i 28 -k RTR
+ -t 1.024000000 -s 5 -d -1 -p cbr -e 1000 -c 2 -a 0 -i 29 -k AGT 
- -t 1.024000000 -s 5 -d -1 -p cbr -e 1000 -c 2 -a 0 -i 29 -k AGT
h -t 1.024000000 -s 5 -d -1 -p cbr -e 1000 -c 2 -a 0 -i 29 -k AGT
+ -t 1.024000000 -s 5 -d 6 -p cbr -e 1020 -c 2 -a 0 -i 29 -k RTR 
- -t 1.024000000 -s 5 -d 6 -p cbr -e 1020 -c 2 -a 0 -i 29 -k RTR
h -t 1.024000000 -s 5 -d 6 -p cbr -e 1020 -c 2 -a 0 -i 29 -k RTR
d -t 1.024000000 -s 5 -d 6 -p cbr -e 1020 -c 2 -a 0 -i 25 -k RTR
d -t 1.024000000 -s 5 -d 6 -p cbr -e 1020 -c 2 -a 0 -i 29 -k RTR
+ -t 1.024000000 -s 1 -d -1 -p cbr -e 1000 -c 2 -a 0 -i 30 -k AGT 
- -t 1.024000000 -s 1 -d -1 -p cbr -e 1000 -c 2 -a 0 -i 30 -k AGT
h -t 1.024000000 -s 1 -d -1 -p cbr -e 1000 -c 2 -a 0 -i 30 -k AGT
+ -t 1.024000000 -s 1 -d 0 -p cbr -e 1020 -c 2 -a 0 -i 30 -k RTR 
- -t 1.024000000 -s 1 -d 0 -p cbr -e 1020 -c 2 -a 0 -i 30 -k RTR
h -t 1.024000000 -s 1 -d 0 -p cbr -e 1020 -c 2 -a 0 -i 30 -k RTR
+ -t 1.024000000 -s 5 -d -1 -p cbr -e 1000 -c 2 -a 0 -i 31 -k AGT 
- -t 1.024000000 -s 5 -d -1 -p cbr -e 1000 -c 2 -a 0 -i 31 -k AGT
h -t 1.024000000 -s 5 -d -1 -p cbr -e 1000 -c 2 -a 0 -i 31 -k AGT
+ -t 1.024000000 -s 5 -d 0 -p cbr -e 1020 -c 2 -a 0 -i 31 -k RTR 
- -t 1.024000000 -s 5 -d 0 -p cbr -e 1020 -c 2 -a 0 -i 31 -k RTR
h -t 1.024000000 -s 5 -d 0 -p cbr -e 1020 -c 2 -a 0 -i 31 -k RTR
d -t 1.024000000 -s 5 -d 0 -p cbr -e 1020 -c 2 -a 0 -i 27 -k RTR
d -t 1.024000000 -s 5 -d 0 -p cbr -e 1020 -c 2 -a 0 -i 31 -k RTR
r -t 1.027224276 -s 0 -d 0 -p cbr -e 1020 -c 2 -a 0 -i 22 -k MAC
+ -t 1.027234276 -s 0 -d -1 -p ACK -e 38 -c 2 -a 0 -i 0 -k MAC 
- -t 1.027234276 -s 0 -d -1 -p ACK -e 38 -c 2 -a 0 -i 0 -k MAC
h -t 1.027234276 -s 0 -d -1 -p ACK -e 38 -c 2 -a 0 -i 0 -k MAC
r -t 1.027249276 -s 0 -d 0 -p cbr -e 1020 -c 2 -a 0 -i 22 -k AGT
r -t 1.027538943 -s 1 -d -1 -p ACK -e 38 -c 2 -a 0 -i 0 -k MAC
+ -t 1.027948943 -s 1 -d -1 -p RTS -e 44 -c 2 -a 0 -i 0 -k MAC 
- -t 1.027948943 -s 1 -d -1 -p RTS -e 44 -c 2 -a 0 -i 0 -k MAC
h -t 1.027948943 -s 1 -d -1 -p RTS -e 44 -c 2 -a 0 -i 0 -k MAC
r -t 1.028301609 -s 0 -d -1 -p RTS -e 44 -c 2 -a 0 -i 0 -k MAC
+ -t 1.028311609 -s 0 -d -1 -p CTS -e 38 -c 2 -a 0 -i 0 -k MAC 
- -t 1.028311609 -s 0 -d -1 -p CTS -e 38 -c 2 -a 0 -i 0 -k MAC
h -t 1.028311609 -s 0 -d -1 -p CTS -e 38 -c 2 -a 0 -i 0 -k MAC
r -t 1.028616276 -s 1 -d -1 -p CTS -e 38 -c 2 -a 0 -i 0 -k MAC
+ -t 1.028626276 -s 1 -d 0 -p cbr -e 1078 -c 2 -a 0 -i 26 -k MAC 
- -t 1.028626276 -s 1 -d 0 -p cbr -e 1078 -c 2 -a 0 -i 26 -k MAC
h -t 1.028626276 -s 1 -d 0 -p cbr -e 1078 -c 2 -a 0 -i 26 -k MAC
+ -t 1.032000000 -s 7 -d -1 -p cbr -e 1000 -c 2 -a 0 -i 32 -k AGT 
- -t 1.032000000 -s 7 -d -1 -p cbr -e 1000 -c 2 -a 0 -i 32 -k AGT
h -t 1.032000000 -s 7 -d -1 -p cbr -e 1000 -c 2 -a 0 -i 32 -k AGT
+ -t 1.032000000 -s 7 -d 6 -p cbr -e 1020 -c 2 -a 0 -i 32 -k RTR 
- -t 1.032000000 -s 7 -d 6 -p cbr -e 1020 -c 2 -a 0 -i 32 -k RTR
h -t 1.032000000 -s 7 -d 6 -p cbr -e 1020 -c 2 -a 0 -i 32 -k RTR
+ -t 1.032000000 -s 5 -d -1 -p cbr -e 1000 -c 2 -a 0 -i 33 -k AGT 
- -t 1.032000000 -s 5 -d -1 -p cbr -e 1000 -c 2 -a 0 -i 33 -k AGT
h -t 1.032000000 -s 5 -d -1 -p cbr -e 1000 -c 2 -a 0 -i 33 -k AGT
+ -t 1.032000000 -s 5 -d 6 -p cbr -e 1020 -c 2 -a 0 -i 33 -k RTR 
- -t 1.032000000 -s 5 -d 6 -p cbr -e 1020 -c 2 -a 0 -i 33 -k RTR