s 0.005340314 _0_ RTR  --- 0 message 32 [0 0 0 0] ------- [0:255 -1:255 32 0] 
s 0.005995314 _0_ MAC  --- 0 message 90 [0 ffffffff 0 800] ------- [0:255 -1:255 32 0] 
r 0.006715980 _5_ MAC  --- 0 message 32 [0 ffffffff 0 800] ------- [0:255 -1:255 32 0] 
r 0.006715980 _1_ MAC  --- 0 message 32 [0 ffffffff 0 800] ------- [0:255 -1:255 32 0] 
r 0.006740980 _5_ RTR  --- 0 message 32 [0 ffffffff 0 800] ------- [0:255 -1:255 32 0] 
r 0.006740980 _1_ RTR  --- 0 message 32 [0 ffffffff 0 800] ------- [0:255 -1:255 32 0] 
s 0.030580916 _2_ RTR  --- 1 message 32 [0 0 0 0] ------- [2:255 -1:255 32 0] 
s 0.030695916 _2_ MAC  --- 1 message 90 [0 ffffffff 2 800] ------- [2:255 -1:255 32 0] 
r 0.031416583 _1_ MAC  --- 1 message 32 [0 ffffffff 2 800] ------- [2:255 -1:255 32 0] 
r 0.031416583 _7_ MAC  --- 1 message 32 [0 ffffffff 2 800] ------- [2:255 -1:255 32 0] 
r 0.031416583 _3_ MAC  --- 1 message 32 [0 ffffffff 2 800] ------- [2:255 -1:255 32 0] 
r 0.031441583 _1_ RTR  --- 1 message 32 [0 ffffffff 2 800] ------- [2:255 -1:255 32 0] 
r 0.031441583 _7_ RTR  --- 1 message 32 [0 ffffffff 2 800] ------- [2:255 -1:255 32 0] 
r 0.031441583 _3_ RTR  --- 1 message 32 [0 ffffffff 2 800] ------- [2:255 -1:255 32 0] 
s 0.093211434 _13_ RTR  --- 2 message 32 [0 0 0 0] ------- [13:255 -1:255 32 0] 
s 0.093366434 _13_ MAC  --- 2 message 90 [0 ffffffff d 800] ------- [13:255 -1:255 32 0] 
r 0.094087101 _8_ MAC  --- 2 message 32 [0 ffffffff d 800] ------- [13:255 -1:255 32 0] 
r 0.094087101 _12_ MAC  --- 2 message 32 [0 ffffffff d 800] ------- [13:255 -1:255 32 0] 
r 0.094087101 _18_ MAC  --- 2 message 32 [0 ffffffff d 800] ------- [13:255 -1:255 32 0] 
r 0.094087101 _14_ MAC  --- 2 message 32 [0 ffffffff d 800] ------- [13:255 -1:255 32 0] 
r 0.094112101 _8_ RTR  --- 2 message 32 [0 ffffffff d 800] ------- [13:255 -1:255 32 0] 
r 0.094112101 _12_ RTR  --- 2 message 32 [0 ffffffff d 800] ------- [13:255 -1:255 32 0] 
r 0.094112101 _18_ RTR  --- 2 message 32 [0 ffffffff d 800] ------- [13:255 -1:255 32 0] 
r 0.094112101 _14_ RTR  --- 2 message 32 [0 ffffffff d 800] ------- [13:255 -1:255 32 0] 
s 0.180287418 _3_ RTR  --- 3 message 32 [0 0 0 0] ------- [3:255 -1:255 32 0] 
s 0.180882418 _3_ MAC  --- 3 message 90 [0 ffffffff 3 800] ------- [3:255 -1:255 32 0] 
r 0.181603085 _2_ MAC  --- 3 message 32 [0 ffffffff 3 800] ------- [3:255 -1:255 32 0] 
r 0.181603085 _8_ MAC  --- 3 message 32 [0 ffffffff 3 800] ------- [3:255 -1:255 32 0] 
r 0.181603085 _4_ MAC  --- 3 message 32 [0 ffffffff 3 800] ------- [3:255 -1:255 32 0] 
r 0.181628085 _2_ RTR  --- 3 message 32 [0 ffffffff 3 800] ------- [3:255 -1:255 32 0] 
r 0.181628085 _8_ RTR  --- 3 message 32 [0 ffffffff 3 800] ------- [3:255 -1:255 32 0] 
r 0.181628085 _4_ RTR  --- 3 message 32 [0 ffffffff 3 800] ------- [3:255 -1:255 32 0] 
s 0.197191187 _19_ RTR  --- 4 message 32 [0 0 0 0] ------- [19:255 -1:255 32 0] 
s 0.197326187 _19_ MAC  --- 4 message 90 [0 ffffffff 13 800] ------- [19:255 -1:255 32 0] 
r 0.198046854 _14_ MAC  --- 4 message 32 [0 ffffffff 13 800] ------- [19:255 -1:255 32 0] 
r 0.198046854 _18_ MAC  --- 4 message 32 [0 ffffffff 13 800] ------- [19:255 -1:255 32 0] 
r 0.198046854 _24_ MAC  --- 4 message 32 [0 ffffffff 13 800] ------- [19:255 -1:255 32 0] 
r 0.198071854 _14_ RTR  --- 4 message 32 [0 ffffffff 13 800] ------- [19:255 -1:255 32 0] 
r 0.198071854 _18_ RTR  --- 4 message 32 [0 ffffffff 13 800] ------- [19:255 -1:255 32 0] 
r 0.198071854 _24_ RTR  --- 4 message 32 [0 ffffffff 13 800] ------- [19:255 -1:255 32 0] 
s 0.233566771 _15_ RTR  --- 5 message 32 [0 0 0 0] ------- [15:255 -1:255 32 0] 
s 0.233921771 _15_ MAC  --- 5 message 90 [0 ffffffff f 800] ------- [15:255 -1:255 32 0] 
r 0.234642438 _10_ MAC  --- 5 message 32 [0 ffffffff f 800] ------- [15:255 -1:255 32 0] 
r 0.234642438 _20_ MAC  --- 5 message 32 [0 ffffffff f 800] ------- [15:255 -1:255 32 0] 
r 0.234642438 _16_ MAC  --- 5 message 32 [0 ffffffff f 800] ------- [15:255 -1:255 32 0] 
r 0.234667438 _10_ RTR  --- 5 message 32 [0 ffffffff f 800] ------- [15:255 -1:255 32 0] 
r 0.234667438 _20_ RTR  --- 5 message 32 [0 ffffffff f 800] ------- [15:255 -1:255 32 0] 
r 0.234667438 _16_ RTR  --- 5 message 32 [0 ffffffff f 800] ------- [15:255 -1:255 32 0] 
s 0.330860751 _12_ RTR  --- 6 message 32 [0 0 0 0] ------- [12:255 -1:255 32 0] 
s 0.330935751 _12_ MAC  --- 6 message 90 [0 ffffffff c 800] ------- [12:255 -1:255 32 0] 
r 0.331656417 _7_ MAC  --- 6 message 32 [0 ffffffff c 800] ------- [12:255 -1:255 32 0] 
r 0.331656417 _11_ MAC  --- 6 message 32 [0 ffffffff c 800] ------- [12:255 -1:255 32 0] 
r 0.331656417 _17_ MAC  --- 6 message 32 [0 ffffffff c 800] ------- [12:255 -1:255 32 0] 
r 0.331656417 _13_ MAC  --- 6 message 32 [0 ffffffff c 800] ------- [12:255 -1:255 32 0] 
r 0.331681417 _7_ RTR  --- 6 message 32 [0 ffffffff c 800] ------- [12:255 -1:255 32 0] 
r 0.331681417 _11_ RTR  --- 6 message 32 [0 ffffffff c 800] ------- [12:255 -1:255 32 0] 
r 0.331681417 _17_ RTR  --- 6 message 32 [0 ffffffff c 800] ------- [12:255 -1:255 32 0] 
r 0.331681417 _13_ RTR  --- 6 message 32 [0 ffffffff c 800] ------- [12:255 -1:255 32 0] 
s 0.352228749 _18_ RTR  --- 7 message 32 [0 0 0 0] ------- [18:255 -1:255 32 0] 
s 0.352523749 _18_ MAC  --- 7 message 90 [0 ffffffff 12 800] ------- [18:255 -1:255 32 0] 
r 0.353244416 _13_ MAC  --- 7 message 32 [0 ffffffff 12 800] ------- [18:255 -1:255 32 0] 
r 0.353244416 _17_ MAC  --- 7 message 32 [0 ffffffff 12 800] ------- [18:255 -1:255 32 0] 
r 0.353244416 _23_ MAC  --- 7 message 32 [0 ffffffff 12 800] ------- [18:255 -1:255 32 0] 
r 0.353244416 _19_ MAC  --- 7 message 32 [0 ffffffff 12 800] ------- [18:255 -1:255 32 0] 
r 0.353269416 _13_ RTR  --- 7 message 32 [0 ffffffff 12 800] ------- [18:255 -1:255 32 0] 
r 0.353269416 _17_ RTR  --- 7 message 32 [0 ffffffff 12 800] ------- [18:255 -1:255 32 0] 
r 0.353269416 _23_ RTR  --- 7 message 32 [0 ffffffff 12 800] ------- [18:255 -1:255 32 0] 
r 0.353269416 _19_ RTR  --- 7 message 32 [0 ffffffff 12 800] ------- [18:255 -1:255 32 0] 
s 0.472476674 _8_ RTR  --- 8 message 32 [0 0 0 0] ------- [8:255 -1:255 32 0] 
s 0.472791674 _8_ MAC  --- 8 message 90 [0 ffffffff 8 800] ------- [8:255 -1:255 32 0] 
r 0.473512340 _3_ MAC  --- 8 message 32 [0 ffffffff 8 800] ------- [8:255 -1:255 32 0] 
r 0.473512340 _7_ MAC  --- 8 message 32 [0 ffffffff 8 800] ------- [8:255 -1:255 32 0] 
r 0.473512340 _13_ MAC  --- 8 message 32 [0 ffffffff 8 800] ------- [8:255 -1:255 32 0] 
r 0.473512340 _9_ MAC  --- 8 message 32 [0 ffffffff 8 800] ------- [8:255 -1:255 32 0] 
r 0.473537340 _3_ RTR  --- 8 message 32 [0 ffffffff 8 800] ------- [8:255 -1:255 32 0] 
r 0.473537340 _7_ RTR  --- 8 message 32 [0 ffffffff 8 800] ------- [8:255 -1:255 32 0] 
r 0.473537340 _13_ RTR  --- 8 message 32 [0 ffffffff 8 800] ------- [8:255 -1:255 32 0] 
r 0.473537340 _9_ RTR  --- 8 message 32 [0 ffffffff 8 800] ------- [8:255 -1:255 32 0] 
s 0.523902855 _22_ RTR  --- 9 message 32 [0 0 0 0] ------- [22:255 -1:255 32 0] 
s 0.524457855 _22_ MAC  --- 9 message 90 [0 ffffffff 16 800] ------- [22:255 -1:255 32 0] 
r 0.525178522 _17_ MAC  --- 9 message 32 [0 ffffffff 16 800] ------- [22:255 -1:255 32 0] 
r 0.525178522 _21_ MAC  --- 9 message 32 [0 ffffffff 16 800] ------- [22:255 -1:255 32 0] 
r 0.525178522 _23_ MAC  --- 9 message 32 [0 ffffffff 16 800] ------- [22:255 -1:255 32 0] 
r 0.525203522 _17_ RTR  --- 9 message 32 [0 ffffffff 16 800] ------- [22:255 -1:255 32 0] 
r 0.525203522 _21_ RTR  --- 9 message 32 [0 ffffffff 16 800] ------- [22:255 -1:255 32 0] 
r 0.525203522 _23_ RTR  --- 9 message 32 [0 ffffffff 16 800] ------- [22:255 -1:255 32 0] 
s 0.627918183 _10_ RTR  --- 10 message 32 [0 0 0 0] ------- [10:255 -1:255 32 0] 
s 0.628113183 _10_ MAC  --- 10 message 90 [0 ffffffff a 800] ------- [10:255 -1:255 32 0] 
r 0.628833849 _5_ MAC  --- 10 message 32 [0 ffffffff a 800] ------- [10:255 -1:255 32 0] 
r 0.628833849 _15_ MAC  --- 10 message 32 [0 ffffffff a 800] ------- [10:255 -1:255 32 0] 
r 0.628833849 _11_ MAC  --- 10 message 32 [0 ffffffff a 800] ------- [10:255 -1:255 32 0] 
r 0.628858849 _5_ RTR  --- 10 message 32 [0 ffffffff a 800] ------- [10:255 -1:255 32 0] 
r 0.628858849 _15_ RTR  --- 10 message 32 [0 ffffffff a 800] ------- [10:255 -1:255 32 0] 
r 0.628858849 _11_ RTR  --- 10 message 32 [0 ffffffff a 800] ------- [10:255 -1:255 32 0] 
s 0.630840760 _6_ RTR  --- 11 message 32 [0 0 0 0] ------- [6:255 -1:255 32 0] 
s 0.631015760 _6_ MAC  --- 11 message 90 [0 ffffffff 6 800] ------- [6:255 -1:255 32 0] 
r 0.631736427 _1_ MAC  --- 11 message 32 [0 ffffffff 6 800] ------- [6:255 -1:255 32 0] 
r 0.631736427 _5_ MAC  --- 11 message 32 [0 ffffffff 6 800] ------- [6:255 -1:255 32 0] 
r 0.631736427 _11_ MAC  --- 11 message 32 [0 ffffffff 6 800] ------- [6:255 -1:255 32 0] 
r 0.631736427 _7_ MAC  --- 11 message 32 [0 ffffffff 6 800] ------- [6:255 -1:255 32 0] 
r 0.631761427 _1_ RTR  --- 11 message 32 [0 ffffffff 6 800] ------- [6:255 -1:255 32 0] 
r 0.631761427 _5_ RTR  --- 11 message 32 [0 ffffffff 6 800] ------- [6:255 -1:255 32 0] 
r 0.631761427 _11_ RTR  --- 11 message 32 [0 ffffffff 6 800] ------- [6:255 -1:255 32 0] 
r 0.631761427 _7_ RTR  --- 11 message 32 [0 ffffffff 6 800] ------- [6:255 -1:255 32 0] 
s 0.698364053 _21_ RTR  --- 12 message 32 [0 0 0 0] ------- [21:255 -1:255 32 0] 
s 0.698499053 _21_ MAC  --- 12 message 90 [0 ffffffff 15 800] ------- [21:255 -1:255 32 0] 
r 0.699219719 _16_ MAC  --- 12 message 32 [0 ffffffff 15 800] ------- [21:255 -1:255 32 0] 
r 0.699219719 _20_ MAC  --- 12 message 32 [0 ffffffff 15 800] ------- [21:255 -1:255 32 0] 
r 0.699219719 _22_ MAC  --- 12 message 32 [0 ffffffff 15 800] ------- [21:255 -1:255 32 0] 
r 0.699244719 _16_ RTR  --- 12 message 32 [0 ffffffff 15 800] ------- [21:255 -1:255 32 0] 
r 0.699244719 _20_ RTR  --- 12 message 32 [0 ffffffff 15 800] ------- [21:255 -1:255 32 0] 
r 0.699244719 _22_ RTR  --- 12 message 32 [0 ffffffff 15 800] ------- [21:255 -1:255 32 0] 
s 0.826117815 _23_ RTR  --- 13 message 32 [0 0 0 0] ------- [23:255 -1:255 32 0] 
s 0.826252815 _23_ MAC  --- 13 message 90 [0 ffffffff 17 800] ------- [23:255 -1:255 32 0] 
r 0.826973482 _18_ MAC  --- 13 message 32 [0 ffffffff 17 800] ------- [23:255 -1:255 32 0] 
r 0.826973482 _22_ MAC  --- 13 message 32 [0 ffffffff 17 800] ------- [23:255 -1:255 32 0] 
r 0.826973482 _24_ MAC  --- 13 message 32 [0 ffffffff 17 800] ------- [23:255 -1:255 32 0] 
r 0.826998482 _18_ RTR  --- 13 message 32 [0 ffffffff 17 800] ------- [23:255 -1:255 32 0] 
r 0.826998482 _22_ RTR  --- 13 message 32 [0 ffffffff 17 800] ------- [23:255 -1:255 32 0] 
r 0.826998482 _24_ RTR  --- 13 message 32 [0 ffffffff 17 800] ------- [23:255 -1:255 32 0] 
s 0.850874058 _17_ RTR  --- 14 message 32 [0 0 0 0] ------- [17:255 -1:255 32 0] 
s 0.851389058 _17_ MAC  --- 14 message 90 [0 ffffffff 11 800] ------- [17:255 -1:255 32 0] 
r 0.852109725 _12_ MAC  --- 14 message 32 [0 ffffffff 11 800] ------- [17:255 -1:255 32 0] 
r 0.852109725 _16_ MAC  --- 14 message 32 [0 ffffffff 11 800] ------- [17:255 -1:255 32 0] 
r 0.852109725 _22_ MAC  --- 14 message 32 [0 ffffffff 11 800] ------- [17:255 -1:255 32 0] 
r 0.852109725 _18_ MAC  --- 14 message 32 [0 ffffffff 11 800] ------- [17:255 -1:255 32 0] 
r 0.852134725 _12_ RTR  --- 14 message 32 [0 ffffffff 11 800] ------- [17:255 -1:255 32 0] 
r 0.852134725 _16_ RTR  --- 14 message 32 [0 ffffffff 11 800] ------- [17:255 -1:255 32 0] 
r 0.852134725 _22_ RTR  --- 14 message 32 [0 ffffffff 11 800] ------- [17:255 -1:255 32 0] 
r 0.852134725 _18_ RTR  --- 14 message 32 [0 ffffffff 11 800] ------- [17:255 -1:255 32 0] 
s 0.888982023 _4_ RTR  --- 15 message 32 [0 0 0 0] ------- [4:255 -1:255 32 0] 
s 0.889357023 _4_ MAC  --- 15 message 90 [0 ffffffff 4 800] ------- [4:255 -1:255 32 0] 
r 0.890077690 _3_ MAC  --- 15 message 32 [0 ffffffff 4 800] ------- [4:255 -1:255 32 0] 
r 0.890077690 _9_ MAC  --- 15 message 32 [0 ffffffff 4 800] ------- [4:255 -1:255 32 0] 
r 0.890102690 _3_ RTR  --- 15 message 32 [0 ffffffff 4 800] ------- [4:255 -1:255 32 0] 
r 0.890102690 _9_ RTR  --- 15 message 32 [0 ffffffff 4 800] ------- [4:255 -1:255 32 0] 
s 1.000000000 _7_ AGT  --- 16 cbr 1000 [0 0 0 0] ------- [7:0 6:0 32 0] [0] 0 0
r 1.000000000 _7_ RTR  --- 16 cbr 1000 [0 0 0 0] ------- [7:0 6:0 32 0] [0] 0 0
s 1.000000000 _7_ RTR  --- 16 cbr 1020 [0 0 0 0] ------- [7:0 6:0 32 6] [0] 0 0
s 1.000000000 _5_ AGT  --- 17 cbr 1000 [0 0 0 0] ------- [5:0 6:1 32 0] [0] 0 0
r 1.000000000 _5_ RTR  --- 17 cbr 1000 [0 0 0 0] ------- [5:0 6:1 32 0] [0] 0 0
s 1.000000000 _5_ RTR  --- 17 cbr 1020 [0 0 0 0] ------- [5:0 6:1 32 6] [0] 0 0
s 1.000000000 _1_ AGT  --- 18 cbr 1000 [0 0 0 0] ------- [1:0 0:0 32 0] [0] 0 0
r 1.000000000 _1_ RTR  --- 18 cbr 1000 [0 0 0 0] ------- [1:0 0:0 32 0] [0] 0 0
s 1.000000000 _1_ RTR  --- 18 cbr 1020 [0 0 0 0] ------- [1:0 0:0 32 0] [0] 0 0
s 1.000000000 _5_ AGT  --- 19 cbr 1000 [0 0 0 0] ------- [5:1 0:1 32 0] [0] 0 0
r 1.000000000 _5_ RTR  --- 19 cbr 1000 [0 0 0 0] ------- [5:1 0:1 32 0] [0] 0 0
s 1.000000000 _5_ RTR  --- 19 cbr 1020 [0 0 0 0] ------- [5:1 0:1 32 0] [0] 0 0
s 1.000095000 _7_ MAC  --- 0 ARP 86 [0 ffffffff 7 806] ------- [REQUEST 7/7 0/6]
r 1.000783667 _2_ MAC  --- 0 ARP 28 [0 ffffffff 7 806] ------- [REQUEST 7/7 0/6]
r 1.000783667 _6_ MAC  --- 0 ARP 28 [0 ffffffff 7 806] ------- [REQUEST 7/7 0/6]
r 1.000783667 _12_ MAC  --- 0 ARP 28 [0 ffffffff 7 806] ------- [REQUEST 7/7 0/6]
r 1.000783667 _8_ MAC  --- 0 ARP 28 [0 ffffffff 7 806] ------- [REQUEST 7/7 0/6]
s 1.000998667 _6_ MAC  --- 0 RTS 44 [52e 7 6 0] 
r 1.001351333 _7_ MAC  --- 0 RTS 44 [52e 7 6 0] 
s 1.001361333 _7_ MAC  --- 0 CTS 38 [3f4 6 0 0] 
r 1.001666000 _6_ MAC  --- 0 CTS 38 [3f4 6 0 0] 
s 1.001676000 _6_ MAC  --- 0 ARP 86 [13a 7 6 806] ------- [REPLY 6/6 7/7]
r 1.002364667 _7_ MAC  --- 0 ARP 28 [13a 7 6 806] ------- [REPLY 6/6 7/7]
s 1.002374667 _7_ MAC  --- 0 ACK 38 [0 6 0 0] 
r 1.002679333 _6_ MAC  --- 0 ACK 38 [0 6 0 0] 
s 1.002748667 _7_ MAC  --- 0 RTS 44 [242e 6 7 0] 
r 1.003101333 _6_ MAC  --- 0 RTS 44 [242e 6 7 0] 
s 1.003111333 _6_ MAC  --- 0 CTS 38 [22f4 7 0 0] 
r 1.003416000 _7_ MAC  --- 0 CTS 38 [22f4 7 0 0] 
s 1.003426000 _7_ MAC  --- 16 cbr 1078 [13a 6 7 800] ------- [7:0 6:0 32 6] [0] 0 0
s 1.008000000 _7_ AGT  --- 20 cbr 1000 [0 0 0 0] ------- [7:0 6:0 32 0] [1] 0 0
r 1.008000000 _7_ RTR  --- 20 cbr 1000 [0 0 0 0] ------- [7:0 6:0 32 0] [1] 0 0
s 1.008000000 _7_ RTR  --- 20 cbr 1020 [0 0 0 0] ------- [7:0 6:0 32 6] [1] 0 0
s 1.008000000 _5_ AGT  --- 21 cbr 1000 [0 0 0 0] ------- [5:0 6:1 32 0] [1] 0 0
r 1.008000000 _5_ RTR  --- 21 cbr 1000 [0 0 0 0] ------- [5:0 6:1 32 0] [1] 0 0
s 1.008000000 _5_ RTR  --- 21 cbr 1020 [0 0 0 0] ------- [5:0 6:1 32 6] [1] 0 0
D 1.008000000 _5_ IFQ  ARP 17 cbr 1020 [0 0 5 800] ------- [5:0 6:1 32 6] [0] 0 0
s 1.008000000 _1_ AGT  --- 22 cbr 1000 [0 0 0 0] ------- [1:0 0:0 32 0] [1] 0 0
r 1.008000000 _1_ RTR  --- 22 cbr 1000 [0 0 0 0] ------- [1:0 0:0 32 0] [1] 0 0
s 1.008000000 _1_ RTR  --- 22 cbr 1020 [0 0 0 0] ------- [1:0 0:0 32 0] [1] 0 0
D 1.008000000 _1_ IFQ  ARP 18 cbr 1020 [0 0 1 800] ------- [1:0 0:0 32 0] [0] 0 0
s 1.008000000 _5_ AGT  --- 23 cbr 1000 [0 0 0 0] ------- [5:1 0:1 32 0] [1] 0 0
r 1.008000000 _5_ RTR  --- 23 cbr 1000 [0 0 0 0] ------- [5:1 0:1 32 0] [1] 0 0
s 1.008000000 _5_ RTR  --- 23 cbr 1020 [0 0 0 0] ------- [5:1 0:1 32 0] [1] 0 0
D 1.008000000 _5_ IFQ  ARP 19 cbr 1020 [0 0 5 800] ------- [5:1 0:1 32 0] [0] 0 0
r 1.012050667 _6_ MAC  --- 16 cbr 1020 [13a 6 7 800] ------- [7:0 6:0 32 6] [0] 1 0
s 1.012060667 _6_ MAC  --- 0 ACK 38 [0 7 0 0] 
r 1.012075667 _6_ AGT  --- 16 cbr 1020 [13a 6 7 800] ------- [7:0 6:0 32 6] [0] 1 0
r 1.012365333 _7_ MAC  --- 0 ACK 38 [0 7 0 0] 
s 1.012644943 _1_ MAC  --- 0 ARP 86 [0 ffffffff 1 806] ------- [REQUEST 1/1 0/0]
r 1.013333609 _0_ MAC  --- 0 ARP 28 [0 ffffffff 1 806] ------- [REQUEST 1/1 0/0]
r 1.013333609 _6_ MAC  --- 0 ARP 28 [0 ffffffff 1 806] ------- [REQUEST 1/1 0/0]
r 1.013333609 _2_ MAC  --- 0 ARP 28 [0 ffffffff 1 806] ------- [REQUEST 1/1 0/0]
s 1.013502943 _1_ MAC  --- 0 ARP 86 [0 ffffffff 1 806] ------- [REQUEST 1/1 0/0]
r 1.014191609 _0_ MAC  --- 0 ARP 28 [0 ffffffff 1 806] ------- [REQUEST 1/1 0/0]
r 1.014191609 _6_ MAC  --- 0 ARP 28 [0 ffffffff 1 806] ------- [REQUEST 1/1 0/0]
r 1.014191609 _2_ MAC  --- 0 ARP 28 [0 ffffffff 1 806] ------- [REQUEST 1/1 0/0]
s 1.014301609 _0_ MAC  --- 0 RTS 44 [52e 1 0 0] 
r 1.014654276 _1_ MAC  --- 0 RTS 44 [52e 1 0 0] 
s 1.014664276 _1_ MAC  --- 0 CTS 38 [3f4 0 0 0] 
r 1.014968943 _0_ MAC  --- 0 CTS 38 [3f4 0 0 0] 
s 1.014978943 _0_ MAC  --- 0 ARP 86 [13a 1 0 806] ------- [REPLY 0/0 1/1]
r 1.015667609 _1_ MAC  --- 0 ARP 28 [13a 1 0 806] ------- [REPLY 0/0 1/1]
s 1.015677609 _1_ MAC  --- 0 ACK 38 [0 0 0 0] 
r 1.015982276 _0_ MAC  --- 0 ACK 38 [0 0 0 0] 
s 1.016000000 _7_ AGT  --- 24 cbr 1000 [0 0 0 0] ------- [7:0 6:0 32 0] [2] 0 0
r 1.016000000 _7_ RTR  --- 24 cbr 1000 [0 0 0 0] ------- [7:0 6:0 32 0] [2] 0 0
s 1.016000000 _7_ RTR  --- 24 cbr 1020 [0 0 0 0] ------- [7:0 6:0 32 6] [2] 0 0
s 1.016000000 _5_ AGT  --- 25 cbr 1000 [0 0 0 0] ------- [5:0 6:1 32 0] [2] 0 0
r 1.016000000 _5_ RTR  --- 25 cbr 1000 [0 0 0 0] ------- [5:0 6:1 32 0] [2] 0 0
s 1.016000000 _5_ RTR  --- 25 cbr 1020 [0 0 0 0] ------- [5:0 6:1 32 6] [2] 0 0
D 1.016000000 _5_ IFQ  ARP 21 cbr 1020 [0 0 5 800] ------- [5:0 6:1 32 6] [1] 0 0
s 1.016000000 _1_ AGT  --- 26 cbr 1000 [0 0 0 0] ------- [1:0 0:0 32 0] [2] 0 0
r 1.016000000 _1_ RTR  --- 26 cbr 1000 [0 0 0 0] ------- [1:0 0:0 32 0] [2] 0 0
s 1.016000000 _1_ RTR  --- 26 cbr 1020 [0 0 0 0] ------- [1:0 0:0 32 0] [2] 0 0
s 1.016000000 _5_ AGT  --- 27 cbr 1000 [0 0 0 0] ------- [5:1 0:1 32 0] [2] 0 0
r 1.016000000 _5_ RTR  --- 27 cbr 1000 [0 0 0 0] ------- [5:1 0:1 32 0] [2] 0 0
s 1.016000000 _5_ RTR  --- 27 cbr 1020 [0 0 0 0] ------- [5:1 0:1 32 0] [2] 0 0
D 1.016000000 _5_ IFQ  ARP 23 cbr 1020 [0 0 5 800] ------- [5:1 0:1 32 0] [1] 0 0
s 1.016032276 _0_ MAC  --- 0 RTS 44 [52e 1 0 0] 
r 1.016384943 _1_ MAC  --- 0 RTS 44 [52e 1 0 0] 
s 1.016394943 _1_ MAC  --- 0 CTS 38 [3f4 0 0 0] 
r 1.016699609 _0_ MAC  --- 0 CTS 38 [3f4 0 0 0] 
s 1.016709609 _0_ MAC  --- 0 ARP 86 [13a 1 0 806] ------- [REPLY 0/0 1/1]
r 1.017398276 _1_ MAC  --- 0 ARP 28 [13a 1 0 806] ------- [REPLY 0/0 1/1]
s 1.017408276 _1_ MAC  --- 0 ACK 38 [0 0 0 0] 
r 1.017712943 _0_ MAC  --- 0 ACK 38 [0 0 0 0] 
s 1.017922276 _1_ MAC  --- 0 RTS 44 [242e 0 1 0] 
r 1.018274943 _0_ MAC  --- 0 RTS 44 [242e 0 1 0] 
s 1.018284943 _0_ MAC  --- 0 CTS 38 [22f4 1 0 0] 
r 1.018589609 _1_ MAC  --- 0 CTS 38 [22f4 1 0 0] 
s 1.018599609 _1_ MAC  --- 22 cbr 1078 [13a 0 1 800] ------- [1:0 0:0 32 0] [1] 0 0
s 1.024000000 _7_ AGT  --- 28 cbr 1000 [0 0 0 0] ------- [7:0 6:0 32 0] [3] 0 0
r 1.024000000 _7_ RTR  --- 28 cbr 1000 [0 0 0 0] ------- [7:0 6:0 32 0] [3] 0 0
s 1.024000000 _7_ RTR  --- 28 cbr 1020 [0 0 0 0] ------- [7:0 6:0 32 6] [3] 0 0
s 1.024000000 _5_ AGT  --- 29 cbr 1000 [0 0 0 0] ------- [5:0 6:1 32 0] [3] 0 0
r 1.024000000 _5_ RTR  --- 29 cbr 1000 [0 0 0 0] ------- [5:0 6:1 32 0] [3] 0 0
s 1.024000000 _5_ RTR  --- 29 cbr 1020 [0 0 0 0] ------- [5:0 6:1 32 6] [3] 0 0
D 1.024000000 _5_ RTR  CBK 25 cbr 1020 [0 0 5 800] ------- [5:0 6:1 32 6] [2] 0 0
D 1.024000000 _5_ RTR  CBK 29 cbr 1020 [0 0 5 800] ------- [5:0 6:1 32 6] [3] 0 0
s 1.024000000 _1_ AGT  --- 30 cbr 1000 [0 0 0 0] ------- [1:0 0:0 32 0] [3] 0 0
r 1.024000000 _1_ RTR  --- 30 cbr 1000 [0 0 0 0] ------- [1:0 0:0 32 0] [3] 0 0
s 1.024000000 _1_ RTR  --- 30 cbr 1020 [0 0 0 0] ------- [1:0 0:0 32 0] [3] 0 0
s 1.024000000 _5_ AGT  --- 31 cbr 1000 [0 0 0 0] ------- [5:1 0:1 32 0] [3] 0 0
r 1.024000000 _5_ RTR  --- 31 cbr 1000 [0 0 0 0] ------- [5:1 0:1 32 0] [3] 0 0
s 1.024000000 _5_ RTR  --- 31 cbr 1020 [0 0 0 0] ------- [5:1 0:1 32 0] [3] 0 0
D 1.024000000 _5_ RTR  CBK 27 cbr 1020 [0 0 5 800] ------- [5:1 0:1 32 0] [2] 0 0
D 1.024000000 _5_ RTR  CBK 31 cbr 1020 [0 0 5 800] ------- [5:1 0:1 32 0] [3] 0 0
r 1.027224276 _0_ MAC  --- 22 cbr 1020 [13a 0 1 800] ------- [1:0 0:0 32 0] [1] 1 0
s 1.027234276 _0_ MAC  --- 0 ACK 38 [0 1 0 0] 
r 1.027249276 _0_ AGT  --- 22 cbr 1020 [13a 0 1 800] ------- [1:0 0:0 32 0] [1] 1 0
r 1.027538943 _1_ MAC  --- 0 ACK 38 [0 1 0 0] 
s 1.027948943 _1_ MAC  --- 0 RTS 44 [242e 0 1 0] 
r 1.028301609 _0_ MAC  --- 0 RTS 44 [242e 0 1 0] 
s 1.028311609 _0_ MAC  --- 0 CTS 38 [22f4 1 0 0] 
r 1.028616276 _1_ MAC  --- 0 CTS 38 [22f4 1 0 0] 
s 1.028626276 _1_ MAC  --- 26 cbr 1078 [13a 0 1 800] ------- [1:0 0:0 32 0] [2] 0 0
s 1.032000000 _7_ AGT  --- 32 cbr 1000 [0 0 0 0] ------- [7:0 6:0 32 0] [4] 0 0
r 1.032000000 _7_ RTR  --- 32 cbr 1000 [0 0 0 0] ------- [7:0 6:0 32 0] [4] 0 0
s 1.032000000 _7_ RTR  --- 32 cbr 1020 [0 0 0 0] ------- [7:0 6:0 32 6] [4] 0 0
s 1.032000000 _5_ AGT  --- 33 cbr 1000 [0 0 0 0] ------- [5:0 6:1 32 0] [4] 0 0
r 1.032000000 _5_ RTR  --- 33 cbr 1000 [0 0 0 0] ------- [5:0 6:1 32 0] [4] 0 0
s 1.032000000 _5_ RTR  --- 33 cbr 1020 [0 0 0 0] ------- [5:0 6:1 32 6] [4] 0 0
s 1.032000000 _1_ AGT  --- 34 cbr 1000 [0 0 0 0] ------- [1:0 0:0 32 0] [4] 0 0
r 1.032000000 _1_ RTR  --- 34 cbr 1000 [0 0 0 0] ------- [1:0 0:0 32 0] [4] 0 0
s 1.032000000 _1_ RTR  --- 34 cbr 1020 [0 0 0 0] ------- [1:0 0:0 32 0] [4] 0 0
s 1.032000000 _5_ AGT  --- 35 cbr 1000 [0 0 0 0] ------- [5:1 0:1 32 0] [4] 0 0
r 1.032000000 _5_ RTR  --- 35 cbr 1000 [0 0 0 0] ------- [5:1 0:1 32 0] [4] 0 0
s 1.032000000 _5_ RTR  --- 35 cbr 1020 [0 0 0 0] ------- [5:1 0:1 32 0] [4] 0 0
r 1.037250943 _0_ MAC  --- 26 cbr 1020 [13a 0 1 800] ------- [1:0 0:0 32 0] [2] 1 0
s 1.037260943 _0_ MAC  --- 0 ACK 38 [0 1 0 0] 
r 1.037275943 _0_ AGT  --- 26 cbr 1020 [13a 0 1 800] ------- [1:0 0:0 32 0] [2] 1 0
r 1.037565609 _1_ MAC  --- 0 ACK 38 [0 1 0 0] 
s 1.037725219 _5_ MAC  --- 0 ARP 86 [0 ffffffff 5 806] ------- [REQUEST 5/5 0/6]
r 1.038413886 _0_ MAC  --- 0 ARP 28 [0 ffffffff 5 806] ------- [REQUEST 5/5 0/6]
r 1.038413886 _10_ MAC  --- 0 ARP 28 [0 ffffffff 5 806] ------- [REQUEST 5/5 0/6]
r 1.038413886 _6_ MAC  --- 0 ARP 28 [0 ffffffff 5 806] ------- [REQUEST 5/5 0/6]
s 1.038628886 _6_ MAC  --- 0 RTS 44 [52e 5 6 0] 
r 1.038981552 _5_ MAC  --- 0 RTS 44 [52e 5 6 0] 
s 1.038991552 _5_ MAC  --- 0 CTS 38 [3f4 6 0 0] 
r 1.039296219 _6_ MAC  --- 0 CTS 38 [3f4 6 0 0] 
s 1.039306219 _6_ MAC  --- 0 ARP 86 [13a 5 6 806] ------- [REPLY 6/6 5/5]
r 1.039994886 _5_ MAC  --- 0 ARP 28 [13a 5 6 806] ------- [REPLY 6/6 5/5]
s 1.040000000 _7_ AGT  --- 37 cbr 1000 [0 0 0 0] ------- [7:0 6:0 32 0] [5] 0 0
r 1.040000000 _7_ RTR  --- 37 cbr 1000 [0 0 0 0] ------- [7:0 6:0 32 0] [5] 0 0
s 1.040000000 _7_ RTR  --- 37 cbr 1020 [0 0 0 0] ------- [7:0 6:0 32 6] [5] 0 0
s 1.040000000 _5_ AGT  --- 38 cbr 1000 [0 0 0 0] ------- [5:0 6:1 32 0] [5] 0 0
r 1.040000000 _5_ RTR  --- 38 cbr 1000 [0 0 0 0] ------- [5:0 6:1 32 0] [5] 0 0
s 1.040000000 _5_ RTR  --- 38 cbr 1020 [0 0 0 0] ------- [5:0 6:1 32 6] [5] 0 0
s 1.040000000 _1_ AGT  --- 39 cbr 1000 [0 0 0 0] ------- [1:0 0:0 32 0] [5] 0 0
r 1.040000000 _1_ RTR  --- 39 cbr 1000 [0 0 0 0] ------- [1:0 0:0 32 0] [5] 0 0
s 1.040000000 _1_ RTR  --- 39 cbr 1020 [0 0 0 0] ------- [1:0 0:0 32 0] [5] 0 0
s 1.040000000 _5_ AGT  --- 40 cbr 1000 [0 0 0 0] ------- [5:1 0:1 32 0] [5] 0 0
r 1.040000000 _5_ RTR  --- 40 cbr 1000 [0 0 0 0] ------- [5:1 0:1 32 0] [5] 0 0
s 1.040000000 _5_ RTR  --- 40 cbr 1020 [0 0 0 0] ------- [5:1 0:1 32 0] [5] 0 0
D 1.040000000 _5_ IFQ  ARP 35 cbr 1020 [0 0 5 800] ------- [5:1 0:1 32 0] [4] 0 0
s 1.040004886 _5_ MAC  --- 0 ACK 38 [0 6 0 0] 
r 1.040309552 _6_ MAC  --- 0 ACK 38 [0 6 0 0] 
s 1.040518886 _5_ MAC  --- 0 ARP 86 [0 ffffffff 5 806] ------- [REQUEST 5/5 0/0]
r 1.041207552 _0_ MAC  --- 0 ARP 28 [0 ffffffff 5 806] ------- [REQUEST 5/5 0/0]
r 1.041207552 _10_ MAC  --- 0 ARP 28 [0 ffffffff 5 806] ------- [REQUEST 5/5 0/0]
r 1.041207552 _6_ MAC  --- 0 ARP 28 [0 ffffffff 5 806] ------- [REQUEST 5/5 0/0]
s 1.041362552 _0_ MAC  --- 0 RTS 44 [52e 5 0 0] 
r 1.041715219 _5_ MAC  --- 0 RTS 44 [52e 5 0 0] 
s 1.041725219 _5_ MAC  --- 0 CTS 38 [3f4 0 0 0] 
r 1.042029886 _0_ MAC  --- 0 CTS 38 [3f4 0 0 0] 
s 1.042039886 _0_ MAC  --- 0 ARP 86 [13a 5 0 806] ------- [REPLY 0/0 5/5]
r 1.042728552 _5_ MAC  --- 0 ARP 28 [13a 5 0 806] ------- [REPLY 0/0 5/5]
s 1.042738552 _5_ MAC  --- 0 ACK 38 [0 0 0 0] 
r 1.043043219 _0_ MAC  --- 0 ACK 38 [0 0 0 0] 
s 1.043252552 _5_ MAC  --- 0 ARP 86 [0 ffffffff 5 806] ------- [REQUEST 5/5 0/6]
r 1.043941219 _0_ MAC  --- 0 ARP 28 [0 ffffffff 5 806] ------- [REQUEST 5/5 0/6]
r 1.043941219 _10_ MAC  --- 0 ARP 28 [0 ffffffff 5 806] ------- [REQUEST 5/5 0/6]
r 1.043941219 _6_ MAC  --- 0 ARP 28 [0 ffffffff 5 806] ------- [REQUEST 5/5 0/6]
s 1.044050552 _5_ MAC  --- 0 ARP 86 [0 ffffffff 5 806] ------- [REQUEST 5/5 0/0]
r 1.044739219 _0_ MAC  --- 0 ARP 28 [0 ffffffff 5 806] ------- [REQUEST 5/5 0/0]
r 1.044739219 _10_ MAC  --- 0 ARP 28 [0 ffffffff 5 806] ------- [REQUEST 5/5 0/0]
r 1.044739219 _6_ MAC  --- 0 ARP 28 [0 ffffffff 5 806] ------- [REQUEST 5/5 0/0]
s 1.045214219 _0_ MAC  --- 0 RTS 44 [52e 5 0 0] 
s 1.045355908 _24_ RTR  --- 36 message 32 [0 0 0 0] ------- [24:255 -1:255 32 0] 
s 1.045450908 _24_ MAC  --- 36 message 90 [0 ffffffff 18 800] ------- [24:255 -1:255 32 0] 
r 1.045566886 _5_ MAC  --- 0 RTS 44 [52e 5 0 0] 
s 1.045576886 _5_ MAC  --- 0 CTS 38 [3f4 0 0 0] 
r 1.045881552 _0_ MAC  --- 0 CTS 38 [3f4 0 0 0] 
s 1.045891552 _0_ MAC  --- 0 ARP 86 [13a 5 0 806] ------- [REPLY 0/0 5/5]
r 1.046171575 _19_ MAC  --- 36 message 32 [0 ffffffff 18 800] ------- [24:255 -1:255 32 0] 
r 1.046171575 _23_ MAC  --- 36 message 32 [0 ffffffff 18 800] ------- [24:255 -1:255 32 0] 
r 1.046196575 _19_ RTR  --- 36 message 32 [0 ffffffff 18 800] ------- [24:255 -1:255 32 0] 
r 1.046196575 _23_ RTR  --- 36 message 32 [0 ffffffff 18 800] ------- [24:255 -1:255 32 0] 
r 1.046580219 _5_ MAC  --- 0 ARP 28 [13a 5 0 806] ------- [REPLY 0/0 5/5]
s 1.046590219 _5_ MAC  --- 0 ACK 38 [0 0 0 0] 
r 1.046894886 _0_ MAC  --- 0 ACK 38 [0 0 0 0] 
s 1.047054495 _6_ MAC  --- 0 RTS 44 [52e 5 6 0] 
r 1.047407162 _5_ MAC  --- 0 RTS 44 [52e 5 6 0] 
s 1.047417162 _5_ MAC  --- 0 CTS 38 [3f4 6 0 0] 
r 1.047721828 _6_ MAC  --- 0 CTS 38 [3f4 6 0 0] 
s 1.047731828 _6_ MAC  --- 0 ARP 86 [13a 5 6 806] ------- [REPLY 6/6 5/5]
s 1.048000000 _7_ AGT  --- 41 cbr 1000 [0 0 0 0] ------- [7:0 6:0 32 0] [6] 0 0
r 1.048000000 _7_ RTR  --- 41 cbr 1000 [0 0 0 0] ------- [7:0 6:0 32 0] [6] 0 0
s 1.048000000 _7_ RTR  --- 41 cbr 1020 [0 0 0 0] ------- [7:0 6:0 32 6] [6] 0 0
s 1.048000000 _5_ AGT  --- 42 cbr 1000 [0 0 0 0] ------- [5:0 6:1 32 0] [6] 0 0
r 1.048000000 _5_ RTR  --- 42 cbr 1000 [0 0 0 0] ------- [5:0 6:1 32 0] [6] 0 0
s 1.048000000 _5_ RTR  --- 42 cbr 1020 [0 0 0 0] ------- [5:0 6:1 32 6] [6] 0 0
s 1.048000000 _1_ AGT  --- 43 cbr 1000 [0 0 0 0] ------- [1:0 0:0 32 0] [6] 0 0
r 1.048000000 _1_ RTR  --- 43 cbr 1000 [0 0 0 0] ------- [1:0 0:0 32 0] [6] 0 0
s 1.048000000 _1_ RTR  --- 43 cbr 1020 [0 0 0 0] ------- [1:0 0:0 32 0] [6] 0 0
s 1.048000000 _5_ AGT  --- 44 cbr 1000 [0 0 0 0] ------- [5:1 0:1 32 0] [6] 0 0
r 1.048000000 _5_ RTR  --- 44 cbr 1000 [0 0 0 0] ------- [5:1 0:1 32 0] [6] 0 0
s 1.048000000 _5_ RTR  --- 44 cbr 1020 [0 0 0 0] ------- [5:1 0:1 32 0] [6] 0 0
r 1.048420495 _5_ MAC  --- 0 ARP 28 [13a 5 6 806] ------- [REPLY 6/6 5/5]
s 1.048430495 _5_ MAC  --- 0 ACK 38 [0 6 0 0] 
r 1.048735162 _6_ MAC  --- 0 ACK 38 [0 6 0 0] 
s 1.048864495 _5_ MAC  --- 0 ARP 86 [0 ffffffff 5 806] ------- [REQUEST 5/5 0/6]
r 1.049553162 _0_ MAC  --- 0 ARP 28 [0 ffffffff 5 806] ------- [REQUEST 5/5 0/6]
r 1.049553162 _10_ MAC  --- 0 ARP 28 [0 ffffffff 5 806] ------- [REQUEST 5/5 0/6]
r 1.049553162 _6_ MAC  --- 0 ARP 28 [0 ffffffff 5 806] ------- [REQUEST 5/5 0/6]
s 1.049622495 _5_ MAC  --- 0 ARP 86 [0 ffffffff 5 806] ------- [REQUEST 5/5 0/0]
r 1.050311162 _0_ MAC  --- 0 ARP 28 [0 ffffffff 5 806] ------- [REQUEST 5/5 0/0]
r 1.050311162 _10_ MAC  --- 0 ARP 28 [0 ffffffff 5 806] ------- [REQUEST 5/5 0/0]
r 1.050311162 _6_ MAC  --- 0 ARP 28 [0 ffffffff 5 806] ------- [REQUEST 5/5 0/0]
s 1.050380495 _5_ MAC  --- 0 ARP 86 [0 ffffffff 5 806] ------- [REQUEST 5/5 0/6]
r 1.051069162 _0_ MAC  --- 0 ARP 28 [0 ffffffff 5 806] ------- [REQUEST 5/5 0/6]
r 1.051069162 _10_ MAC  --- 0 ARP 28 [0 ffffffff 5 806] ------- [REQUEST 5/5 0/6]
r 1.051069162 _6_ MAC  --- 0 ARP 28 [0 ffffffff 5 806] ------- [REQUEST 5/5 0/6]
s 1.051319162 _6_ MAC  --- 0 RTS 44 [52e 5 6 0] 
r 1.051671828 _5_ MAC  --- 0 RTS 44 [52e 5 6 0] 
s 1.051681828 _5_ MAC  --- 0 CTS 38 [3f4 6 0 0] 
r 1.051986495 _6_ MAC  --- 0 CTS 38 [3f4 6 0 0] 
s 1.051996495 _6_ MAC  --- 0 ARP 86 [13a 5 6 806] ------- [REPLY 6/6 5/5]
r 1.052685162 _5_ MAC  --- 0 ARP 28 [13a 5 6 806] ------- [REPLY 6/6 5/5]
s 1.052695162 _5_ MAC  --- 0 ACK 38 [0 6 0 0] 
r 1.052999828 _6_ MAC  --- 0 ACK 38 [0 6 0 0] 
s 1.053279438 _0_ MAC  --- 0 RTS 44 [52e 5 0 0] 
r 1.053632105 _5_ MAC  --- 0 RTS 44 [52e 5 0 0] 
s 1.053642105 _5_ MAC  --- 0 CTS 38 [3f4 0 0 0] 
r 1.053946771 _0_ MAC  --- 0 CTS 38 [3f4 0 0 0] 
s 1.053956771 _0_ MAC  --- 0 ARP 86 [13a 5 0 806] ------- [REPLY 0/0 5/5]
r 1.054645438 _5_ MAC  --- 0 ARP 28 [13a 5 0 806] ------- [REPLY 0/0 5/5]
s 1.054655438 _5_ MAC  --- 0 ACK 38 [0 0 0 0] 
r 1.054960105 _0_ MAC  --- 0 ACK 38 [0 0 0 0] 
s 1.055029438 _5_ MAC  --- 0 ARP 86 [0 ffffffff 5 806] ------- [REQUEST 5/5 0/0]
r 1.055718105 _0_ MAC  --- 0 ARP 28 [0 ffffffff 5 806] ------- [REQUEST 5/5 0/0]
r 1.055718105 _10_ MAC  --- 0 ARP 28 [0 ffffffff 5 806] ------- [REQUEST 5/5 0/0]
r 1.055718105 _6_ MAC  --- 0 ARP 28 [0 ffffffff 5 806] ------- [REQUEST 5/5 0/0]
s 1.055928105 _6_ MAC  --- 0 RTS 44 [52e 5 6 0] 
s 1.056000000 _7_ AGT  --- 45 cbr 1000 [0 0 0 0] ------- [7:0 6:0 32 0] [7] 0 0
r 1.056000000 _7_ RTR  --- 45 cbr 1000 [0 0 0 0] ------- [7:0 6:0 32 0] [7] 0 0
s 1.056000000 _7_ RTR  --- 45 cbr 1020 [0 0 0 0] ------- [7:0 6:0 32 6] [7] 0 0
s 1.056000000 _5_ AGT  --- 46 cbr 1000 [0 0 0 0] ------- [5:0 6:1 32 0] [7] 0 0
r 1.056000000 _5_ RTR  --- 46 cbr 1000 [0 0 0 0] ------- [5:0 6:1 32 0] [7] 0 0
s 1.056000000 _5_ RTR  --- 46 cbr 1020 [0 0 0 0] ------- [5:0 6:1 32 6] [7] 0 0