s 0.000535000 _2_ MAC  --- 0 AODV 106 [0 ffffffff 2 800] ------- [2:255 -1:255 30 0] [0x2 1 1 [1 0] [2 4]] (REQUEST)
r 0.001383373 _4_ MAC  --- 0 AODV 48 [0 ffffffff 2 800] ------- [2:255 -1:255 30 0] [0x2 1 1 [1 0] [2 4]] (REQUEST)
r 0.001383503 _1_ MAC  --- 0 AODV 48 [0 ffffffff 2 800] ------- [2:255 -1:255 30 0] [0x2 1 1 [1 0] [2 4]] (REQUEST)
r 0.001383649 _3_ MAC  --- 0 AODV 48 [0 ffffffff 2 800] ------- [2:255 -1:255 30 0] [0x2 1 1 [1 0] [2 4]] (REQUEST)
r 0.001383664 _0_ MAC  --- 0 AODV 48 [0 ffffffff 2 800] ------- [2:255 -1:255 30 0] [0x2 1 1 [1 0] [2 4]] (REQUEST)
s 0.001463503 _1_ MAC  --- 0 ARP 86 [0 ffffffff 1 806] ------- [REQUEST 1/1 0/2]
r 0.002152006 _2_ MAC  --- 0 ARP 28 [0 ffffffff 1 806] ------- [REQUEST 1/1 0/2]
r 0.002152042 _0_ MAC  --- 0 ARP 28 [0 ffffffff 1 806] ------- [REQUEST 1/1 0/2]
r 0.002152258 _4_ MAC  --- 0 ARP 28 [0 ffffffff 1 806] ------- [REQUEST 1/1 0/2]
r 0.002152282 _3_ MAC  --- 0 ARP 28 [0 ffffffff 1 806] ------- [REQUEST 1/1 0/2]
s 0.002222006 _2_ MAC  --- 0 RTS 44 [52e 1 2 0] 
r 0.002574509 _1_ MAC  --- 0 RTS 44 [52e 1 2 0] 
s 0.002584509 _1_ MAC  --- 0 CTS 38 [3f4 2 0 0] 
r 0.002889012 _2_ MAC  --- 0 CTS 38 [3f4 2 0 0] 
s 0.002899012 _2_ MAC  --- 0 ARP 86 [13a 1 2 806] ------- [REPLY 2/2 1/1]
r 0.003587514 _1_ MAC  --- 0 ARP 28 [13a 1 2 806] ------- [REPLY 2/2 1/1]
s 0.003597514 _1_ MAC  --- 0 ACK 38 [0 2 0 0] 
r 0.003902017 _2_ MAC  --- 0 ACK 38 [0 2 0 0] 
s 0.004092270 _4_ MAC  --- 0 AODV 106 [0 ffffffff 4 800] ------- [4:255 -1:255 29 0] [0x2 2 1 [1 0] [2 4]] (REQUEST)
r 0.004940643 _2_ MAC  --- 0 AODV 48 [0 ffffffff 4 800] ------- [4:255 -1:255 29 0] [0x2 2 1 [1 0] [2 4]] (REQUEST)
r 0.004940670 _3_ MAC  --- 0 AODV 48 [0 ffffffff 4 800] ------- [4:255 -1:255 29 0] [0x2 2 1 [1 0] [2 4]] (REQUEST)
r 0.004940881 _0_ MAC  --- 0 AODV 48 [0 ffffffff 4 800] ------- [4:255 -1:255 29 0] [0x2 2 1 [1 0] [2 4]] (REQUEST)
r 0.004941025 _1_ MAC  --- 0 AODV 48 [0 ffffffff 4 800] ------- [4:255 -1:255 29 0] [0x2 2 1 [1 0] [2 4]] (REQUEST)
s 0.005031025 _1_ MAC  --- 0 RTS 44 [5ae 2 1 0] 
r 0.005383528 _2_ MAC  --- 0 RTS 44 [5ae 2 1 0] 
s 0.005393528 _2_ MAC  --- 0 CTS 38 [474 1 0 0] 
r 0.005698031 _1_ MAC  --- 0 CTS 38 [474 1 0 0] 
s 0.005708031 _1_ MAC  --- 0 AODV 102 [13a 2 1 800] ------- [1:255 2:255 30 2] [0x4 1 [1 4] 10.000000] (REPLY)
r 0.006524534 _2_ MAC  --- 0 AODV 44 [13a 2 1 800] ------- [1:255 2:255 30 2] [0x4 1 [1 4] 10.000000] (REPLY)
s 0.006534534 _2_ MAC  --- 0 ACK 38 [0 1 0 0] 
r 0.006839036 _1_ MAC  --- 0 ACK 38 [0 1 0 0] 
s 0.006949183 _3_ MAC  --- 0 AODV 106 [0 ffffffff 3 800] ------- [3:255 -1:255 29 0] [0x2 2 1 [1 0] [2 4]] (REQUEST)
r 0.007797536 _0_ MAC  --- 0 AODV 48 [0 ffffffff 3 800] ------- [3:255 -1:255 29 0] [0x2 2 1 [1 0] [2 4]] (REQUEST)
r 0.007797583 _4_ MAC  --- 0 AODV 48 [0 ffffffff 3 800] ------- [3:255 -1:255 29 0] [0x2 2 1 [1 0] [2 4]] (REQUEST)
r 0.007797832 _2_ MAC  --- 0 AODV 48 [0 ffffffff 3 800] ------- [3:255 -1:255 29 0] [0x2 2 1 [1 0] [2 4]] (REQUEST)
r 0.007797962 _1_ MAC  --- 0 AODV 48 [0 ffffffff 3 800] ------- [3:255 -1:255 29 0] [0x2 2 1 [1 0] [2 4]] (REQUEST)
s 0.007967832 _2_ MAC  --- 0 RTS 44 [242e 1 2 0] 
r 0.008320335 _1_ MAC  --- 0 RTS 44 [242e 1 2 0] 
s 0.008330335 _1_ MAC  --- 0 CTS 38 [22f4 2 0 0] 
r 0.008634838 _2_ MAC  --- 0 CTS 38 [22f4 2 0 0] 
s 0.008644838 _2_ MAC  --- 0 cbr 1078 [13a 1 2 800] ------- [2:1 1:4 30 1] [0] 0 0
r 0.017269340 _1_ MAC  --- 0 cbr 1020 [13a 1 2 800] ------- [2:1 1:4 30 1] [0] 1 0
s 0.017279340 _1_ MAC  --- 0 ACK 38 [0 2 0 0] 
r 0.017583843 _2_ MAC  --- 0 ACK 38 [0 2 0 0] 
s 0.017693880 _0_ MAC  --- 0 AODV 106 [0 ffffffff 0 800] ------- [0:255 -1:255 29 0] [0x2 2 1 [1 0] [2 4]] (REQUEST)
r 0.018542233 _3_ MAC  --- 0 AODV 48 [0 ffffffff 0 800] ------- [0:255 -1:255 29 0] [0x2 2 1 [1 0] [2 4]] (REQUEST)
r 0.018542419 _1_ MAC  --- 0 AODV 48 [0 ffffffff 0 800] ------- [0:255 -1:255 29 0] [0x2 2 1 [1 0] [2 4]] (REQUEST)
r 0.018542491 _4_ MAC  --- 0 AODV 48 [0 ffffffff 0 800] ------- [0:255 -1:255 29 0] [0x2 2 1 [1 0] [2 4]] (REQUEST)
r 0.018542543 _2_ MAC  --- 0 AODV 48 [0 ffffffff 0 800] ------- [0:255 -1:255 29 0] [0x2 2 1 [1 0] [2 4]] (REQUEST)
s 0.018692543 _2_ MAC  --- 0 RTS 44 [242e 1 2 0] 
r 0.019045046 _1_ MAC  --- 0 RTS 44 [242e 1 2 0] 
s 0.019055046 _1_ MAC  --- 0 CTS 38 [22f4 2 0 0] 
r 0.019359549 _2_ MAC  --- 0 CTS 38 [22f4 2 0 0] 
s 0.019369549 _2_ MAC  --- 1 cbr 1078 [13a 1 2 800] ------- [2:1 1:4 30 1] [1] 0 0
r 0.027994052 _1_ MAC  --- 1 cbr 1020 [13a 1 2 800] ------- [2:1 1:4 30 1] [1] 1 0
s 0.028004052 _1_ MAC  --- 0 ACK 38 [0 2 0 0] 
r 0.028308555 _2_ MAC  --- 0 ACK 38 [0 2 0 0] 
s 0.028598555 _2_ MAC  --- 0 RTS 44 [242e 1 2 0] 
r 0.028951057 _1_ MAC  --- 0 RTS 44 [242e 1 2 0] 
s 0.028961057 _1_ MAC  --- 0 CTS 38 [22f4 2 0 0] 
r 0.029265560 _2_ MAC  --- 0 CTS 38 [22f4 2 0 0] 
s 0.029275560 _2_ MAC  --- 2 cbr 1078 [13a 1 2 800] ------- [2:1 1:4 30 1] [2] 0 0
r 0.037900063 _1_ MAC  --- 2 cbr 1020 [13a 1 2 800] ------- [2:1 1:4 30 1] [2] 1 0
s 0.037910063 _1_ MAC  --- 0 ACK 38 [0 2 0 0] 
r 0.038214566 _2_ MAC  --- 0 ACK 38 [0 2 0 0] 
s 0.038424566 _2_ MAC  --- 0 RTS 44 [242e 1 2 0] 
r 0.038777069 _1_ MAC  --- 0 RTS 44 [242e 1 2 0] 
s 0.038787069 _1_ MAC  --- 0 CTS 38 [22f4 2 0 0] 
r 0.039091572 _2_ MAC  --- 0 CTS 38 [22f4 2 0 0] 
s 0.039101572 _2_ MAC  --- 3 cbr 1078 [13a 1 2 800] ------- [2:1 1:4 30 1] [3] 0 0
r 0.047726075 _1_ MAC  --- 3 cbr 1020 [13a 1 2 800] ------- [2:1 1:4 30 1] [3] 1 0
s 0.047736075 _1_ MAC  --- 0 ACK 38 [0 2 0 0] 
r 0.048040578 _2_ MAC  --- 0 ACK 38 [0 2 0 0] 
s 0.048570578 _2_ MAC  --- 0 RTS 44 [242e 1 2 0] 
r 0.048923081 _1_ MAC  --- 0 RTS 44 [242e 1 2 0] 
s 0.048933081 _1_ MAC  --- 0 CTS 38 [22f4 2 0 0] 
r 0.049237583 _2_ MAC  --- 0 CTS 38 [22f4 2 0 0] 
s 0.049247583 _2_ MAC  --- 4 cbr 1078 [13a 1 2 800] ------- [2:1 1:4 30 1] [4] 0 0
r 0.057872086 _1_ MAC  --- 4 cbr 1020 [13a 1 2 800] ------- [2:1 1:4 30 1] [4] 1 0
s 0.057882086 _1_ MAC  --- 0 ACK 38 [0 2 0 0] 
r 0.058186589 _2_ MAC  --- 0 ACK 38 [0 2 0 0] 
s 0.058576589 _2_ MAC  --- 0 RTS 44 [242e 1 2 0] 
r 0.058929092 _1_ MAC  --- 0 RTS 44 [242e 1 2 0] 
s 0.058939092 _1_ MAC  --- 0 CTS 38 [22f4 2 0 0] 
r 0.059243595 _2_ MAC  --- 0 CTS 38 [22f4 2 0 0] 
s 0.059253595 _2_ MAC  --- 5 cbr 1078 [13a 1 2 800] ------- [2:1 1:4 30 1] [5] 0 0
r 0.067878098 _1_ MAC  --- 5 cbr 1020 [13a 1 2 800] ------- [2:1 1:4 30 1] [5] 1 0
s 0.067888098 _1_ MAC  --- 0 ACK 38 [0 2 0 0] 
r 0.068192601 _2_ MAC  --- 0 ACK 38 [0 2 0 0] 
s 0.068562601 _2_ MAC  --- 0 RTS 44 [242e 1 2 0] 
r 0.068915104 _1_ MAC  --- 0 RTS 44 [242e 1 2 0] 
s 0.068925104 _1_ MAC  --- 0 CTS 38 [22f4 2 0 0] 
r 0.069229606 _2_ MAC  --- 0 CTS 38 [22f4 2 0 0] 
s 0.069239606 _2_ MAC  --- 6 cbr 1078 [13a 1 2 800] ------- [2:1 1:4 30 1] [6] 0 0
r 0.077864109 _1_ MAC  --- 6 cbr 1020 [13a 1 2 800] ------- [2:1 1:4 30 1] [6] 1 0
s 0.077874109 _1_ MAC  --- 0 ACK 38 [0 2 0 0] 
r 0.078178612 _2_ MAC  --- 0 ACK 38 [0 2 0 0] 
s 0.078428612 _2_ MAC  --- 0 RTS 44 [242e 1 2 0] 
r 0.078781115 _1_ MAC  --- 0 RTS 44 [242e 1 2 0] 
s 0.078791115 _1_ MAC  --- 0 CTS 38 [22f4 2 0 0] 
r 0.079095618 _2_ MAC  --- 0 CTS 38 [22f4 2 0 0] 
s 0.079105618 _2_ MAC  --- 7 cbr 1078 [13a 1 2 800] ------- [2:1 1:4 30 1] [7] 0 0
r 0.087730121 _1_ MAC  --- 7 cbr 1020 [13a 1 2 800] ------- [2:1 1:4 30 1] [7] 1 0
s 0.087740121 _1_ MAC  --- 0 ACK 38 [0 2 0 0] 
r 0.088044624 _2_ MAC  --- 0 ACK 38 [0 2 0 0] 
s 0.088314624 _2_ MAC  --- 0 RTS 44 [242e 1 2 0] 
r 0.088667127 _1_ MAC  --- 0 RTS 44 [242e 1 2 0] 
s 0.088677127 _1_ MAC  --- 0 CTS 38 [22f4 2 0 0] 
r 0.088981630 _2_ MAC  --- 0 CTS 38 [22f4 2 0 0] 
s 0.088991630 _2_ MAC  --- 8 cbr 1078 [13a 1 2 800] ------- [2:1 1:4 30 1] [8] 0 0
r 0.097616132 _1_ MAC  --- 8 cbr 1020 [13a 1 2 800] ------- [2:1 1:4 30 1] [8] 1 0
s 0.097626132 _1_ MAC  --- 0 ACK 38 [0 2 0 0] 
r 0.097930635 _2_ MAC  --- 0 ACK 38 [0 2 0 0] 
s 0.098000635 _2_ MAC  --- 0 RTS 44 [242e 1 2 0] 
r 0.098353138 _1_ MAC  --- 0 RTS 44 [242e 1 2 0] 
s 0.098363138 _1_ MAC  --- 0 CTS 38 [22f4 2 0 0] 
r 0.098667641 _2_ MAC  --- 0 CTS 38 [22f4 2 0 0] 
s 0.098677641 _2_ MAC  --- 9 cbr 1078 [13a 1 2 800] ------- [2:1 1:4 30 1] [9] 0 0
r 0.107302144 _1_ MAC  --- 9 cbr 1020 [13a 1 2 800] ------- [2:1 1:4 30 1] [9] 1 0
s 0.107312144 _1_ MAC  --- 0 ACK 38 [0 2 0 0] 
r 0.107616647 _2_ MAC  --- 0 ACK 38 [0 2 0 0] 
s 0.107906647 _2_ MAC  --- 0 RTS 44 [242e 1 2 0] 
r 0.108259150 _1_ MAC  --- 0 RTS 44 [242e 1 2 0] 
s 0.108269150 _1_ MAC  --- 0 CTS 38 [22f4 2 0 0] 
r 0.108573653 _2_ MAC  --- 0 CTS 38 [22f4 2 0 0] 
s 0.108583653 _2_ MAC  --- 10 cbr 1078 [13a 1 2 800] ------- [2:1 1:4 30 1] [10] 0 0
r 0.117208155 _1_ MAC  --- 10 cbr 1020 [13a 1 2 800] ------- [2:1 1:4 30 1] [10] 1 0
s 0.117218155 _1_ MAC  --- 0 ACK 38 [0 2 0 0] 
r 0.117522658 _2_ MAC  --- 0 ACK 38 [0 2 0 0] 
s 0.118012658 _2_ MAC  --- 0 RTS 44 [242e 1 2 0] 
r 0.118365161 _1_ MAC  --- 0 RTS 44 [242e 1 2 0] 
s 0.118375161 _1_ MAC  --- 0 CTS 38 [22f4 2 0 0] 
r 0.118679664 _2_ MAC  --- 0 CTS 38 [22f4 2 0 0] 
s 0.118689664 _2_ MAC  --- 11 cbr 1078 [13a 1 2 800] ------- [2:1 1:4 30 1] [11] 0 0
r 0.127314167 _1_ MAC  --- 11 cbr 1020 [13a 1 2 800] ------- [2:1 1:4 30 1] [11] 1 0
s 0.127324167 _1_ MAC  --- 0 ACK 38 [0 2 0 0] 
r 0.127628670 _2_ MAC  --- 0 ACK 38 [0 2 0 0] 
s 0.127858670 _2_ MAC  --- 0 RTS 44 [242e 1 2 0] 
r 0.128211173 _1_ MAC  --- 0 RTS 44 [242e 1 2 0] 
s 0.128221173 _1_ MAC  --- 0 CTS 38 [22f4 2 0 0] 
r 0.128525676 _2_ MAC  --- 0 CTS 38 [22f4 2 0 0] 
s 0.128535676 _2_ MAC  --- 12 cbr 1078 [13a 1 2 800] ------- [2:1 1:4 30 1] [12] 0 0
r 0.137160178 _1_ MAC  --- 12 cbr 1020 [13a 1 2 800] ------- [2:1 1:4 30 1] [12] 1 0
s 0.137170178 _1_ MAC  --- 0 ACK 38 [0 2 0 0] 
r 0.137474681 _2_ MAC  --- 0 ACK 38 [0 2 0 0] 
s 0.138104681 _2_ MAC  --- 0 RTS 44 [242e 1 2 0] 
r 0.138457184 _1_ MAC  --- 0 RTS 44 [242e 1 2 0] 
s 0.138467184 _1_ MAC  --- 0 CTS 38 [22f4 2 0 0] 
r 0.138771687 _2_ MAC  --- 0 CTS 38 [22f4 2 0 0] 
s 0.138781687 _2_ MAC  --- 13 cbr 1078 [13a 1 2 800] ------- [2:1 1:4 30 1] [13] 0 0
r 0.147406190 _1_ MAC  --- 13 cbr 1020 [13a 1 2 800] ------- [2:1 1:4 30 1] [13] 1 0
s 0.147416190 _1_ MAC  --- 0 ACK 38 [0 2 0 0] 
r 0.147720693 _2_ MAC  --- 0 ACK 38 [0 2 0 0] 
s 0.148170693 _2_ MAC  --- 0 RTS 44 [242e 1 2 0] 
r 0.148523196 _1_ MAC  --- 0 RTS 44 [242e 1 2 0] 
s 0.148533196 _1_ MAC  --- 0 CTS 38 [22f4 2 0 0] 
r 0.148837699 _2_ MAC  --- 0 CTS 38 [22f4 2 0 0] 
s 0.148847699 _2_ MAC  --- 14 cbr 1078 [13a 1 2 800] ------- [2:1 1:4 30 1] [14] 0 0
r 0.157472202 _1_ MAC  --- 14 cbr 1020 [13a 1 2 800] ------- [2:1 1:4 30 1] [14] 1 0
s 0.157482202 _1_ MAC  --- 0 ACK 38 [0 2 0 0] 
r 0.157786704 _2_ MAC  --- 0 ACK 38 [0 2 0 0] 
s 0.158376704 _2_ MAC  --- 0 RTS 44 [242e 1 2 0] 
r 0.158729207 _1_ MAC  --- 0 RTS 44 [242e 1 2 0] 
s 0.158739207 _1_ MAC  --- 0 CTS 38 [22f4 2 0 0] 
r 0.159043710 _2_ MAC  --- 0 CTS 38 [22f4 2 0 0] 
s 0.159053710 _2_ MAC  --- 15 cbr 1078 [13a 1 2 800] ------- [2:1 1:4 30 1] [15] 0 0
r 0.167678213 _1_ MAC  --- 15 cbr 1020 [13a 1 2 800] ------- [2:1 1:4 30 1] [15] 1 0
s 0.167688213 _1_ MAC  --- 0 ACK 38 [0 2 0 0] 
r 0.167992716 _2_ MAC  --- 0 ACK 38 [0 2 0 0] 
s 0.168402716 _2_ MAC  --- 0 RTS 44 [242e 1 2 0] 
r 0.168755219 _1_ MAC  --- 0 RTS 44 [242e 1 2 0] 
s 0.168765219 _1_ MAC  --- 0 CTS 38 [22f4 2 0 0] 
r 0.169069722 _2_ MAC  --- 0 CTS 38 [22f4 2 0 0] 
s 0.169079722 _2_ MAC  --- 16 cbr 1078 [13a 1 2 800] ------- [2:1 1:4 30 1] [16] 0 0
r 0.177704225 _1_ MAC  --- 16 cbr 1020 [13a 1 2 800] ------- [2:1 1:4 30 1] [16] 1 0
s 0.177714225 _1_ MAC  --- 0 ACK 38 [0 2 0 0] 
r 0.178018727 _2_ MAC  --- 0 ACK 38 [0 2 0 0] 
s 0.178108727 _2_ MAC  --- 0 RTS 44 [242e 1 2 0] 
r 0.178461230 _1_ MAC  --- 0 RTS 44 [242e 1 2 0] 
s 0.178471230 _1_ MAC  --- 0 CTS 38 [22f4 2 0 0] 
r 0.178775733 _2_ MAC  --- 0 CTS 38 [22f4 2 0 0] 
s 0.178785733 _2_ MAC  --- 17 cbr 1078 [13a 1 2 800] ------- [2:1 1:4 30 1] [17] 0 0
r 0.187410236 _1_ MAC  --- 17 cbr 1020 [13a 1 2 800] ------- [2:1 1:4 30 1] [17] 1 0
s 0.187420236 _1_ MAC  --- 0 ACK 38 [0 2 0 0] 
r 0.187724739 _2_ MAC  --- 0 ACK 38 [0 2 0 0] 
s 0.188074739 _2_ MAC  --- 0 RTS 44 [242e 1 2 0] 
r 0.188427242 _1_ MAC  --- 0 RTS 44 [242e 1 2 0] 
s 0.188437242 _1_ MAC  --- 0 CTS 38 [22f4 2 0 0] 
r 0.188741745 _2_ MAC  --- 0 CTS 38 [22f4 2 0 0] 
s 0.188751745 _2_ MAC  --- 18 cbr 1078 [13a 1 2 800] ------- [2:1 1:4 30 1] [18] 0 0
r 0.197376248 _1_ MAC  --- 18 cbr 1020 [13a 1 2 800] ------- [2:1 1:4 30 1] [18] 1 0
s 0.197386248 _1_ MAC  --- 0 ACK 38 [0 2 0 0] 
r 0.197690750 _2_ MAC  --- 0 ACK 38 [0 2 0 0] 
s 0.198100750 _2_ MAC  --- 0 RTS 44 [242e 1 2 0] 
r 0.198453253 _1_ MAC  --- 0 RTS 44 [242e 1 2 0] 
s 0.198463253 _1_ MAC  --- 0 CTS 38 [22f4 2 0 0] 
r 0.198767756 _2_ MAC  --- 0 CTS 38 [22f4 2 0 0] 
s 0.198777756 _2_ MAC  --- 19 cbr 1078 [13a 1 2 800] ------- [2:1 1:4 30 1] [19] 0 0
r 0.207402259 _1_ MAC  --- 19 cbr 1020 [13a 1 2 800] ------- [2:1 1:4 30 1] [19] 1 0
s 0.207412259 _1_ MAC  --- 0 ACK 38 [0 2 0 0] 
r 0.207716762 _2_ MAC  --- 0 ACK 38 [0 2 0 0] 
s 0.207906762 _2_ MAC  --- 0 RTS 44 [242e 1 2 0] 
r 0.208259265 _1_ MAC  --- 0 RTS 44 [242e 1 2 0] 
s 0.208269265 _1_ MAC  --- 0 CTS 38 [22f4 2 0 0] 
r 0.208573768 _2_ MAC  --- 0 CTS 38 [22f4 2 0 0] 
s 0.208583768 _2_ MAC  --- 20 cbr 1078 [13a 1 2 800] ------- [2:1 1:4 30 1] [20] 0 0
r 0.217208271 _1_ MAC  --- 20 cbr 1020 [13a 1 2 800] ------- [2:1 1:4 30 1] [20] 1 0
s 0.217218271 _1_ MAC  --- 0 ACK 38 [0 2 0 0] 
r 0.217522774 _2_ MAC  --- 0 ACK 38 [0 2 0 0] 
s 0.217652774 _2_ MAC  --- 0 RTS 44 [242e 1 2 0] 
r 0.218005276 _1_ MAC  --- 0 RTS 44 [242e 1 2 0] 
s 0.218015276 _1_ MAC  --- 0 CTS 38 [22f4 2 0 0] 
r 0.218319779 _2_ MAC  --- 0 CTS 38 [22f4 2 0 0] 
s 0.218329779 _2_ MAC  --- 21 cbr 1078 [13a 1 2 800] ------- [2:1 1:4 30 1] [21] 0 0
r 0.226954282 _1_ MAC  --- 21 cbr 1020 [13a 1 2 800] ------- [2:1 1:4 30 1] [21] 1 0
s 0.226964282 _1_ MAC  --- 0 ACK 38 [0 2 0 0] 
r 0.227268785 _2_ MAC  --- 0 ACK 38 [0 2 0 0] 
s 0.227598785 _2_ MAC  --- 0 RTS 44 [242e 1 2 0] 
r 0.227951288 _1_ MAC  --- 0 RTS 44 [242e 1 2 0] 
s 0.227961288 _1_ MAC  --- 0 CTS 38 [22f4 2 0 0] 
r 0.228265791 _2_ MAC  --- 0 CTS 38 [22f4 2 0 0] 
s 0.228275791 _2_ MAC  --- 22 cbr 1078 [13a 1 2 800] ------- [2:1 1:4 30 1] [22] 0 0
r 0.236900294 _1_ MAC  --- 22 cbr 1020 [13a 1 2 800] ------- [2:1 1:4 30 1] [22] 1 0
s 0.236910294 _1_ MAC  --- 0 ACK 38 [0 2 0 0] 
r 0.237214797 _2_ MAC  --- 0 ACK 38 [0 2 0 0] 
s 0.237464797 _2_ MAC  --- 0 RTS 44 [242e 1 2 0] 
r 0.237817299 _1_ MAC  --- 0 RTS 44 [242e 1 2 0] 
s 0.237827299 _1_ MAC  --- 0 CTS 38 [22f4 2 0 0] 
r 0.238131802 _2_ MAC  --- 0 CTS 38 [22f4 2 0 0] 
s 0.238141802 _2_ MAC  --- 23 cbr 1078 [13a 1 2 800] ------- [2:1 1:4 30 1] [23] 0 0
r 0.246766305 _1_ MAC  --- 23 cbr 1020 [13a 1 2 800] ------- [2:1 1:4 30 1] [23] 1 0
s 0.246776305 _1_ MAC  --- 0 ACK 38 [0 2 0 0] 
r 0.247080808 _2_ MAC  --- 0 ACK 38 [0 2 0 0] 
s 0.247230808 _2_ MAC  --- 0 RTS 44 [242e 1 2 0] 
r 0.247583311 _1_ MAC  --- 0 RTS 44 [242e 1 2 0] 
s 0.247593311 _1_ MAC  --- 0 CTS 38 [22f4 2 0 0] 
r 0.247897814 _2_ MAC  --- 0 CTS 38 [22f4 2 0 0] 
s 0.247907814 _2_ MAC  --- 24 cbr 1078 [13a 1 2 800] ------- [2:1 1:4 30 1] [24] 0 0
r 0.256532317 _1_ MAC  --- 24 cbr 1020 [13a 1 2 800] ------- [2:1 1:4 30 1] [24] 1 0
s 0.256542317 _1_ MAC  --- 0 ACK 38 [0 2 0 0] 
r 0.256846820 _2_ MAC  --- 0 ACK 38 [0 2 0 0] 
s 0.257416820 _2_ MAC  --- 0 RTS 44 [242e 1 2 0] 
r 0.257769323 _1_ MAC  --- 0 RTS 44 [242e 1 2 0] 
s 0.257779323 _1_ MAC  --- 0 CTS 38 [22f4 2 0 0] 
r 0.258083825 _2_ MAC  --- 0 CTS 38 [22f4 2 0 0] 
s 0.258093825 _2_ MAC  --- 25 cbr 1078 [13a 1 2 800] ------- [2:1 1:4 30 1] [25] 0 0
r 0.266718328 _1_ MAC  --- 25 cbr 1020 [13a 1 2 800] ------- [2:1 1:4 30 1] [25] 1 0
s 0.266728328 _1_ MAC  --- 0 ACK 38 [0 2 0 0] 
r 0.267032831 _2_ MAC  --- 0 ACK 38 [0 2 0 0] 
s 0.267302831 _2_ MAC  --- 0 RTS 44 [242e 1 2 0] 
r 0.267655334 _1_ MAC  --- 0 RTS 44 [242e 1 2 0] 
s 0.267665334 _1_ MAC  --- 0 CTS 38 [22f4 2 0 0] 
r 0.267969837 _2_ MAC  --- 0 CTS 38 [22f4 2 0 0] 
s 0.267979837 _2_ MAC  --- 26 cbr 1078 [13a 1 2 800] ------- [2:1 1:4 30 1] [26] 0 0
r 0.276604340 _1_ MAC  --- 26 cbr 1020 [13a 1 2 800] ------- [2:1 1:4 30 1] [26] 1 0
s 0.276614340 _1_ MAC  --- 0 ACK 38 [0 2 0 0] 
r 0.276918843 _2_ MAC  --- 0 ACK 38 [0 2 0 0] 
s 0.277168843 _2_ MAC  --- 0 RTS 44 [242e 1 2 0] 
r 0.277521346 _1_ MAC  --- 0 RTS 44 [242e 1 2 0] 
s 0.277531346 _1_ MAC  --- 0 CTS 38 [22f4 2 0 0] 
r 0.277835848 _2_ MAC  --- 0 CTS 38 [22f4 2 0 0] 
s 0.277845848 _2_ MAC  --- 27 cbr 1078 [13a 1 2 800] ------- [2:1 1:4 30 1] [27] 0 0
r 0.286470351 _1_ MAC  --- 27 cbr 1020 [13a 1 2 800] ------- [2:1 1:4 30 1] [27] 1 0
s 0.286480351 _1_ MAC  --- 0 ACK 38 [0 2 0 0] 
r 0.286784854 _2_ MAC  --- 0 ACK 38 [0 2 0 0] 
s 0.287414854 _2_ MAC  --- 0 RTS 44 [242e 1 2 0] 
r 0.287767357 _1_ MAC  --- 0 RTS 44 [242e 1 2 0] 
s 0.287777357 _1_ MAC  --- 0 CTS 38 [22f4 2 0 0] 
r 0.288081860 _2_ MAC  --- 0 CTS 38 [22f4 2 0 0] 
s 0.288091860 _2_ MAC  --- 28 cbr 1078 [13a 1 2 800] ------- [2:1 1:4 30 1] [28] 0 0
r 0.296716363 _1_ MAC  --- 28 cbr 1020 [13a 1 2 800] ------- [2:1 1:4 30 1] [28] 1 0
s 0.296726363 _1_ MAC  --- 0 ACK 38 [0 2 0 0] 
r 0.297030866 _2_ MAC  --- 0 ACK 38 [0 2 0 0] 
s 0.297140866 _2_ MAC  --- 0 RTS 44 [242e 1 2 0] 
r 0.297493369 _1_ MAC  --- 0 RTS 44 [242e 1 2 0] 
s 0.297503369 _1_ MAC  --- 0 CTS 38 [22f4 2 0 0] 
r 0.297807871 _2_ MAC  --- 0 CTS 38 [22f4 2 0 0] 
s 0.297817871 _2_ MAC  --- 29 cbr 1078 [13a 1 2 800] ------- [2:1 1:4 30 1] [29] 0 0
r 0.306442374 _1_ MAC  --- 29 cbr 1020 [13a 1 2 800] ------- [2:1 1:4 30 1] [29] 1 0
s 0.306452374 _1_ MAC  --- 0 ACK 38 [0 2 0 0] 
r 0.306756877 _2_ MAC  --- 0 ACK 38 [0 2 0 0] 
s 0.306926877 _2_ MAC  --- 0 RTS 44 [242e 1 2 0] 
r 0.307279380 _1_ MAC  --- 0 RTS 44 [242e 1 2 0] 
s 0.307289380 _1_ MAC  --- 0 CTS 38 [22f4 2 0 0] 
r 0.307593883 _2_ MAC  --- 0 CTS 38 [22f4 2 0 0] 
s 0.307603883 _2_ MAC  --- 30 cbr 1078 [13a 1 2 800] ------- [2:1 1:4 30 1] [30] 0 0
r 0.316228386 _1_ MAC  --- 30 cbr 1020 [13a 1 2 800] ------- [2:1 1:4 30 1] [30] 1 0
s 0.316238386 _1_ MAC  --- 0 ACK 38 [0 2 0 0] 
r 0.316542889 _2_ MAC  --- 0 ACK 38 [0 2 0 0] 
s 0.316932889 _2_ MAC  --- 0 RTS 44 [242e 1 2 0] 
r 0.317285392 _1_ MAC  --- 0 RTS 44 [242e 1 2 0] 
s 0.317295392 _1_ MAC  --- 0 CTS 38 [22f4 2 0 0] 
r 0.317599895 _2_ MAC  --- 0 CTS 38 [22f4 2 0 0] 
s 0.317609895 _2_ MAC  --- 31 cbr 1078 [13a 1 2 800] ------- [2:1 1:4 30 1] [31] 0 0
r 0.326234397 _1_ MAC  --- 31 cbr 1020 [13a 1 2 800] ------- [2:1 1:4 30 1] [31] 1 0
s 0.326244397 _1_ MAC  --- 0 ACK 38 [0 2 0 0] 
r 0.326548900 _2_ MAC  --- 0 ACK 38 [0 2 0 0] 
s 0.327098900 _2_ MAC  --- 0 RTS 44 [242e 1 2 0] 
r 0.327451403 _1_ MAC  --- 0 RTS 44 [242e 1 2 0] 
s 0.327461403 _1_ MAC  --- 0 CTS 38 [22f4 2 0 0] 
r 0.327765906 _2_ MAC  --- 0 CTS 38 [22f4 2 0 0] 
s 0.327775906 _2_ MAC  --- 32 cbr 1078 [13a 1 2 800] ------- [2:1 1:4 30 1] [32] 0 0
r 0.336400409 _1_ MAC  --- 32 cbr 1020 [13a 1 2 800] ------- [2:1 1:4 30 1] [32] 1 0
s 0.336410409 _1_ MAC  --- 0 ACK 38 [0 2 0 0] 
r 0.336714912 _2_ MAC  --- 0 ACK 38 [0 2 0 0] 
s 0.337044912 _2_ MAC  --- 0 RTS 44 [242e 1 2 0] 
r 0.337397415 _1_ MAC  --- 0 RTS 44 [242e 1 2 0] 
s 0.337407415 _1_ MAC  --- 0 CTS 38 [22f4 2 0 0] 
r 0.337711918 _2_ MAC  --- 0 CTS 38 [22f4 2 0 0] 
s 0.337721918 _2_ MAC  --- 33 cbr 1078 [13a 1 2 800] ------- [2:1 1:4 30 1] [33] 0 0
r 0.346346420 _1_ MAC  --- 33 cbr 1020 [13a 1 2 800] ------- [2:1 1:4 30 1] [33] 1 0
s 0.346356420 _1_ MAC  --- 0 ACK 38 [0 2 0 0] 
r 0.346660923 _2_ MAC  --- 0 ACK 38 [0 2 0 0] 
s 0.346890923 _2_ MAC  --- 0 RTS 44 [242e 1 2 0] 
r 0.347243426 _1_ MAC  --- 0 RTS 44 [242e 1 2 0] 
s 0.347253426 _1_ MAC  --- 0 CTS 38 [22f4 2 0 0] 
r 0.347557929 _2_ MAC  --- 0 CTS 38 [22f4 2 0 0] 
s 0.347567929 _2_ MAC  --- 34 cbr 1078 [13a 1 2 800] ------- [2:1 1:4 30 1] [34] 0 0
r 0.356192432 _1_ MAC  --- 34 cbr 1020 [13a 1 2 800] ------- [2:1 1:4 30 1] [34] 1 0
s 0.356202432 _1_ MAC  --- 0 ACK 38 [0 2 0 0] 
r 0.356506935 _2_ MAC  --- 0 ACK 38 [0 2 0 0] 
s 0.356836935 _2_ MAC  --- 0 RTS 44 [242e 1 2 0] 
r 0.357189438 _1_ MAC  --- 0 RTS 44 [242e 1 2 0] 
s 0.357199438 _1_ MAC  --- 0 CTS 38 [22f4 2 0 0] 
r 0.357503941 _2_ MAC  --- 0 CTS 38 [22f4 2 0 0] 
s 0.357513941 _2_ MAC  --- 35 cbr 1078 [13a 1 2 800] ------- [2:1 1:4 30 1] [35] 0 0
r 0.366138443 _1_ MAC  --- 35 cbr 1020 [13a 1 2 800] ------- [2:1 1:4 30 1] [35] 1 0
s 0.366148443 _1_ MAC  --- 0 ACK 38 [0 2 0 0] 
r 0.366452946 _2_ MAC  --- 0 ACK 38 [0 2 0 0] 
s 0.366982946 _2_ MAC  --- 0 RTS 44 [242e 1 2 0] 
r 0.367335449 _1_ MAC  --- 0 RTS 44 [242e 1 2 0] 
s 0.367345449 _1_ MAC  --- 0 CTS 38 [22f4 2 0 0] 
r 0.367649952 _2_ MAC  --- 0 CTS 38 [22f4 2 0 0] 
s 0.367659952 _2_ MAC  --- 36 cbr 1078 [13a 1 2 800] ------- [2:1 1:4 30 1] [36] 0 0
r 0.376284455 _1_ MAC  --- 36 cbr 1020 [13a 1 2 800] ------- [2:1 1:4 30 1] [36] 1 0
s 0.376294455 _1_ MAC  --- 0 ACK 38 [0 2 0 0] 
r 0.376598958 _2_ MAC  --- 0 ACK 38 [0 2 0 0] 
s 0.376648958 _2_ MAC  --- 0 RTS 44 [242e 1 2 0] 
r 0.377001461 _1_ MAC  --- 0 RTS 44 [242e 1 2 0] 
s 0.377011461 _1_ MAC  --- 0 CTS 38 [22f4 2 0 0] 
r 0.377315964 _2_ MAC  --- 0 CTS 38 [22f4 2 0 0] 
s 0.377325964 _2_ MAC  --- 37 cbr 1078 [13a 1 2 800] ------- [2:1 1:4 30 1] [37] 0 0
r 0.385950467 _1_ MAC  --- 37 cbr 1020 [13a 1 2 800] ------- [2:1 1:4 30 1] [37] 1 0
s 0.385960467 _1_ MAC  --- 0 ACK 38 [0 2 0 0] 
r 0.386264969 _2_ MAC  --- 0 ACK 38 [0 2 0 0] 
s 0.386534969 _2_ MAC  --- 0 RTS 44 [242e 1 2 0] 
r 0.386887472 _1_ MAC  --- 0 RTS 44 [242e 1 2 0] 
s 0.386897472 _1_ MAC  --- 0 CTS 38 [22f4 2 0 0] 
r 0.387201975 _2_ MAC  --- 0 CTS 38 [22f4 2 0 0] 
s 0.387211975 _2_ MAC  --- 38 cbr 1078 [13a 1 2 800] ------- [2:1 1:4 30 1] [38] 0 0
r 0.395836478 _1_ MAC  --- 38 cbr 1020 [13a 1 2 800] ------- [2:1 1:4 30 1] [38] 1 0
s 0.395846478 _1_ MAC  --- 0 ACK 38 [0 2 0 0] 
r 0.396150981 _2_ MAC  --- 0 ACK 38 [0 2 0 0] 
s 0.396520981 _2_ MAC  --- 0 RTS 44 [242e 1 2 0] 
r 0.396873484 _1_ MAC  --- 0 RTS 44 [242e 1 2 0] 
s 0.396883484 _1_ MAC  --- 0 CTS 38 [22f4 2 0 0] 
r 0.397187987 _2_ MAC  --- 0 CTS 38 [22f4 2 0 0] 
s 0.397197987 _2_ MAC  --- 39 cbr 1078 [13a 1 2 800] ------- [2:1 1:4 30 1] [39] 0 0
r 0.405822490 _1_ MAC  --- 39 cbr 1020 [13a 1 2 800] ------- [2:1 1:4 30 1] [39] 1 0
s 0.405832490 _1_ MAC  --- 0 ACK 38 [0 2 0 0] 
r 0.406136992 _2_ MAC  --- 0 ACK 38 [0 2 0 0] 
s 0.406346992 _2_ MAC  --- 0 RTS 44 [242e 1 2 0] 
r 0.406699495 _1_ MAC  --- 0 RTS 44 [242e 1 2 0] 
s 0.406709495 _1_ MAC  --- 0 CTS 38 [22f4 2 0 0] 
r 0.407013998 _2_ MAC  --- 0 CTS 38 [22f4 2 0 0] 
s 0.407023998 _2_ MAC  --- 40 cbr 1078 [13a 1 2 800] ------- [2:1 1:4 30 1] [40] 0 0
r 0.415648501 _1_ MAC  --- 40 cbr 1020 [13a 1 2 800] ------- [2:1 1:4 30 1] [40] 1 0
s 0.415658501 _1_ MAC  --- 0 ACK 38 [0 2 0 0] 
r 0.415963004 _2_ MAC  --- 0 ACK 38 [0 2 0 0] 
s 0.416233004 _2_ MAC  --- 0 RTS 44 [242e 1 2 0] 
r 0.416585507 _1_ MAC  --- 0 RTS 44 [242e 1 2 0] 
s 0.416595507 _1_ MAC  --- 0 CTS 38 [22f4 2 0 0] 
r 0.416900010 _2_ MAC  --- 0 CTS 38 [22f4 2 0 0] 
s 0.416910010 _2_ MAC  --- 41 cbr 1078 [13a 1 2 800] ------- [2:1 1:4 30 1] [41] 0 0
r 0.425534513 _1_ MAC  --- 41 cbr 1020 [13a 1 2 800] ------- [2:1 1:4 30 1] [41] 1 0
s 0.425544513 _1_ MAC  --- 0 ACK 38 [0 2 0 0] 
r 0.425849016 _2_ MAC  --- 0 ACK 38 [0 2 0 0] 
s 0.425979016 _2_ MAC  --- 0 RTS 44 [242e 1 2 0] 
r 0.426331518 _1_ MAC  --- 0 RTS 44 [242e 1 2 0] 
s 0.426341518 _1_ MAC  --- 0 CTS 38 [22f4 2 0 0] 
r 0.426646021 _2_ MAC  --- 0 CTS 38 [22f4 2 0 0] 
s 0.426656021 _2_ MAC  --- 42 cbr 1078 [13a 1 2 800] ------- [2:1 1:4 30 1] [42] 0 0
r 0.435280524 _1_ MAC  --- 42 cbr 1020 [13a 1 2 800] ------- [2:1 1:4 30 1] [42] 1 0
s 0.435290524 _1_ MAC  --- 0 ACK 38 [0 2 0 0] 
r 0.435595027 _2_ MAC  --- 0 ACK 38 [0 2 0 0] 
s 0.435945027 _2_ MAC  --- 0 RTS 44 [242e 1 2 0] 
r 0.436297530 _1_ MAC  --- 0 RTS 44 [242e 1 2 0] 
s 0.436307530 _1_ MAC  --- 0 CTS 38 [22f4 2 0 0] 
r 0.436612033 _2_ MAC  --- 0 CTS 38 [22f4 2 0 0] 
s 0.436622033 _2_ MAC  --- 43 cbr 1078 [13a 1 2 800] ------- [2:1 1:4 30 1] [43] 0 0
r 0.445246536 _1_ MAC  --- 43 cbr 1020 [13a 1 2 800] ------- [2:1 1:4 30 1] [43] 1 0
s 0.445256536 _1_ MAC  --- 0 ACK 38 [0 2 0 0] 
r 0.445561039 _2_ MAC  --- 0 ACK 38 [0 2 0 0] 
s 0.445611039 _2_ MAC  --- 0 RTS 44 [242e 1 2 0] 
r 0.445963541 _1_ MAC  --- 0 RTS 44 [242e 1 2 0] 
s 0.445973541 _1_ MAC  --- 0 CTS 38 [22f4 2 0 0] 
r 0.446278044 _2_ MAC  --- 0 CTS 38 [22f4 2 0 0] 
s 0.446288044 _2_ MAC  --- 44 cbr 1078 [13a 1 2 800] ------- [2:1 1:4 30 1] [44] 0 0
r 0.454912547 _1_ MAC  --- 44 cbr 1020 [13a 1 2 800] ------- [2:1 1:4 30 1] [44] 1 0
s 0.454922547 _1_ MAC  --- 0 ACK 38 [0 2 0 0] 
r 0.455227050 _2_ MAC  --- 0 ACK 38 [0 2 0 0] 
s 0.455517050 _2_ MAC  --- 0 RTS 44 [242e 1 2 0] 
r 0.455869553 _1_ MAC  --- 0 RTS 44 [242e 1 2 0] 
s 0.455879553 _1_ MAC  --- 0 CTS 38 [22f4 2 0 0] 
r 0.456184056 _2_ MAC  --- 0 CTS 38 [22f4 2 0 0] 
s 0.456194056 _2_ MAC  --- 45 cbr 1078 [13a 1 2 800] ------- [2:1 1:4 30 1] [45] 0 0
r 0.464818559 _1_ MAC  --- 45 cbr 1020 [13a 1 2 800] ------- [2:1 1:4 30 1] [45] 1 0
s 0.464828559 _1_ MAC  --- 0 ACK 38 [0 2 0 0] 
r 0.465133062 _2_ MAC  --- 0 ACK 38 [0 2 0 0] 
s 0.465483062 _2_ MAC  --- 0 RTS 44 [242e 1 2 0] 
r 0.465835564 _1_ MAC  --- 0 RTS 44 [242e 1 2 0] 
s 0.465845564 _1_ MAC  --- 0 CTS 38 [22f4 2 0 0] 
r 0.466150067 _2_ MAC  --- 0 CTS 38 [22f4 2 0 0] 
s 0.466160067 _2_ MAC  --- 46 cbr 1078 [13a 1 2 800] ------- [2:1 1:4 30 1] [46] 0 0
r 0.474784570 _1_ MAC  --- 46 cbr 1020 [13a 1 2 800] ------- [2:1 1:4 30 1] [46] 1 0
s 0.474794570 _1_ MAC  --- 0 ACK 38 [0 2 0 0] 
r 0.475099073 _2_ MAC  --- 0 ACK 38 [0 2 0 0] 
s 0.475429073 _2_ MAC  --- 0 RTS 44 [242e 1 2 0] 
r 0.475781576 _1_ MAC  --- 0 RTS 44 [242e 1 2 0] 
s 0.475791576 _1_ MAC  --- 0 CTS 38 [22f4 2 0 0] 
r 0.476096079 _2_ MAC  --- 0 CTS 38 [22f4 2 0 0] 
s 0.476106079 _2_ MAC  --- 47 cbr 1078 [13a 1 2 800] ------- [2:1 1:4 30 1] [47] 0 0
r 0.484730582 _1_ MAC  --- 47 cbr 1020 [13a 1 2 800] ------- [2:1 1:4 30 1] [47] 1 0
s 0.484740582 _1_ MAC  --- 0 ACK 38 [0 2 0 0] 
r 0.485045085 _2_ MAC  --- 0 ACK 38 [0 2 0 0] 
s 0.485115085 _2_ MAC  --- 0 RTS 44 [242e 1 2 0] 
r 0.485467588 _1_ MAC  --- 0 RTS 44 [242e 1 2 0] 
s 0.485477588 _1_ MAC  --- 0 CTS 38 [22f4 2 0 0] 
r 0.485782090 _2_ MAC  --- 0 CTS 38 [22f4 2 0 0] 
s 0.485792090 _2_ MAC  --- 48 cbr 1078 [13a 1 2 800] ------- [2:1 1:4 30 1] [48] 0 0
r 0.494416593 _1_ MAC  --- 48 cbr 1020 [13a 1 2 800] ------- [2:1 1:4 30 1] [48] 1 0
s 0.494426593 _1_ MAC  --- 0 ACK 38 [0 2 0 0] 
r 0.494731096 _2_ MAC  --- 0 ACK 38 [0 2 0 0] 
s 0.495261096 _2_ MAC  --- 0 RTS 44 [242e 1 2 0] 
r 0.495613599 _1_ MAC  --- 0 RTS 44 [242e 1 2 0] 
s 0.495623599 _1_ MAC  --- 0 CTS 38 [22f4 2 0 0] 
r 0.495928102 _2_ MAC  --- 0 CTS 38 [22f4 2 0 0] 
s 0.495938102 _2_ MAC  --- 49 cbr 1078 [13a 1 2 800] ------- [2:1 1:4 30 1] [49] 0 0
r 0.504562605 _1_ MAC  --- 49 cbr 1020 [13a 1 2 800] ------- [2:1 1:4 30 1] [49] 1 0
s 0.504572605 _1_ MAC  --- 0 ACK 38 [0 2 0 0] 
r 0.504877108 _2_ MAC  --- 0 ACK 38 [0 2 0 0] 
s 0.505167108 _2_ MAC  --- 0 RTS 44 [242e 1 2 0] 
r 0.505519611 _1_ MAC  --- 0 RTS 44 [242e 1 2 0] 
s 0.505529611 _1_ MAC  --- 0 CTS 38 [22f4 2 0 0] 
r 0.505834113 _2_ MAC  --- 0 CTS 38 [22f4 2 0 0] 
s 0.505844113 _2_ MAC  --- 50 cbr 1078 [13a 1 2 800] ------- [2:1 1:4 30 1] [50] 0 0
r 0.514468616 _1_ MAC  --- 50 cbr 1020 [13a 1 2 800] ------- [2:1 1:4 30 1] [50] 1 0
s 0.514478616 _1_ MAC  --- 0 ACK 38 [0 2 0 0] 
r 0.514783119 _2_ MAC  --- 0 ACK 38 [0 2 0 0] 
s 0.514953119 _2_ MAC  --- 0 RTS 44 [242e 1 2 0] 
r 0.515305622 _1_ MAC  --- 0 RTS 44 [242e 1 2 0] 
s 0.515315622 _1_ MAC  --- 0 CTS 38 [22f4 2 0 0] 
r 0.515620125 _2_ MAC  --- 0 CTS 38 [22f4 2 0 0] 
s 0.515630125 _2_ MAC  --- 51 cbr 1078 [13a 1 2 800] ------- [2:1 1:4 30 1] [51] 0 0
r 0.524254628 _1_ MAC  --- 51 cbr 1020 [13a 1 2 800] ------- [2:1 1:4 30 1] [51] 1 0
s 0.524264628 _1_ MAC  --- 0 ACK 38 [0 2 0 0] 
r 0.524569131 _2_ MAC  --- 0 ACK 38 [0 2 0 0] 
s 0.524919131 _2_ MAC  --- 0 RTS 44 [242e 1 2 0] 
r 0.525271634 _1_ MAC  --- 0 RTS 44 [242e 1 2 0] 
s 0.525281634 _1_ MAC  --- 0 CTS 38 [22f4 2 0 0] 
r 0.525586136 _2_ MAC  --- 0 CTS 38 [22f4 2 0 0] 
s 0.525596136 _2_ MAC  --- 52 cbr 1078 [13a 1 2 800] ------- [2:1 1:4 30 1] [52] 0 0
r 0.534220639 _1_ MAC  --- 52 cbr 1020 [13a 1 2 800] ------- [2:1 1:4 30 1] [52] 1 0
s 0.534230639 _1_ MAC  --- 0 ACK 38 [0 2 0 0] 
r 0.534535142 _2_ MAC  --- 0 ACK 38 [0 2 0 0] 
s 0.534625142 _2_ MAC  --- 0 RTS 44 [242e 1 2 0] 
r 0.534977645 _1_ MAC  --- 0 RTS 44 [242e 1 2 0] 
s 0.534987645 _1_ MAC  --- 0 CTS 38 [22f4 2 0 0] 
r 0.535292148 _2_ MAC  --- 0 CTS 38 [22f4 2 0 0] 
s 0.535302148 _2_ MAC  --- 53 cbr 1078 [13a 1 2 800] ------- [2:1 1:4 30 1] [53] 0 0
r 0.543926651 _1_ MAC  --- 53 cbr 1020 [13a 1 2 800] ------- [2:1 1:4 30 1] [53] 1 0
s 0.543936651 _1_ MAC  --- 0 ACK 38 [0 2 0 0] 
r 0.544241154 _2_ MAC  --- 0 ACK 38 [0 2 0 0] 
s 0.544751154 _2_ MAC  --- 0 RTS 44 [242e 1 2 0] 
r 0.545103657 _1_ MAC  --- 0 RTS 44 [242e 1 2 0] 
s 0.545113657 _1_ MAC  --- 0 CTS 38 [22f4 2 0 0] 
r 0.545418160 _2_ MAC  --- 0 CTS 38 [22f4 2 0 0] 
s 0.545428160 _2_ MAC  --- 54 cbr 1078 [13a 1 2 800] ------- [2:1 1:4 30 1] [54] 0 0
r 0.554052662 _1_ MAC  --- 54 cbr 1020 [13a 1 2 800] ------- [2:1 1:4 30 1] [54] 1 0
s 0.554062662 _1_ MAC  --- 0 ACK 38 [0 2 0 0] 
r 0.554367165 _2_ MAC  --- 0 ACK 38 [0 2 0 0] 
s 0.554537165 _2_ MAC  --- 0 RTS 44 [242e 1 2 0] 
r 0.554889668 _1_ MAC  --- 0 RTS 44 [242e 1 2 0] 
s 0.554899668 _1_ MAC  --- 0 CTS 38 [22f4 2 0 0] 
r 0.555204171 _2_ MAC  --- 0 CTS 38 [22f4 2 0 0] 
s 0.555214171 _2_ MAC  --- 55 cbr 1078 [13a 1 2 800] ------- [2:1 1:4 30 1] [55] 0 0
r 0.563838674 _1_ MAC  --- 55 cbr 1020 [13a 1 2 800] ------- [2:1 1:4 30 1] [55] 1 0
s 0.563848674 _1_ MAC  --- 0 ACK 38 [0 2 0 0] 
r 0.564153177 _2_ MAC  --- 0 ACK 38 [0 2 0 0] 
s 0.564403177 _2_ MAC  --- 0 RTS 44 [242e 1 2 0] 
r 0.564755680 _1_ MAC  --- 0 RTS 44 [242e 1 2 0] 
s 0.564765680 _1_ MAC  --- 0 CTS 38 [22f4 2 0 0] 
r 0.565070183 _2_ MAC  --- 0 CTS 38 [22f4 2 0 0] 
s 0.565080183 _2_ MAC  --- 56 cbr 1078 [13a 1 2 800] ------- [2:1 1:4 30 1] [56] 0 0
r 0.573704685 _1_ MAC  --- 56 cbr 1020 [13a 1 2 800] ------- [2:1 1:4 30 1] [56] 1 0